[Molden Format]
made by pyscf v[1.6.4]
[Atoms] (AU)
C   1   6     8.83219251236156    11.86927152263468     0.00000000000000
C   2   6    11.15163290902210    10.53014167090126     0.00000000000000
C   3   6    11.15163290902210     7.85188196743444     0.00000000000000
C   4   6     8.83219251236156     6.51275211570103     0.00000000000000
C   5   6     6.51275211570103     7.85188196743444     0.00000000000000
C   6   6     6.51275211570103    10.53014167090126     0.00000000000000
H   7   1     8.83219251236156    13.94029797159051     0.00000000000000
H   8   1    12.94519276083417    11.56565489537918     0.00000000000000
H   9   1    12.94519276083417     6.81637063268265     0.00000000000000
H   10   1     8.83219251236156     4.44172755647132     0.00000000000000
H   11   1     4.71919226388896     6.81637063268265     0.00000000000000
H   12   1     4.71919226388896    11.56565489537918     0.00000000000000
[GTO]
1 0
 s    6 1.00
             3047.5249  0.0018347001629433
             457.36951    0.01403730124668
             103.94869   0.068842606114048
             29.210155    0.23218442062076
              9.286663    0.46794134155879
              3.163927    0.36231203217765
 s    3 1.00
             7.8682724   -0.11933240861517
             1.8812885   -0.16085421161283
             0.5442493     1.1434564825515
 s    1 1.00
             0.1687144                   1
 p    3 1.00
             7.8682724   0.068999095584993
             1.8812885    0.31642397975315
             0.5442493    0.74430825237435
 p    1 1.00
             0.1687144                   1
 d    1 1.00
                   0.8                   1

2 0
 s    6 1.00
             3047.5249  0.0018347001629433
             457.36951    0.01403730124668
             103.94869   0.068842606114048
             29.210155    0.23218442062076
              9.286663    0.46794134155879
              3.163927    0.36231203217765
 s    3 1.00
             7.8682724   -0.11933240861517
             1.8812885   -0.16085421161283
             0.5442493     1.1434564825515
 s    1 1.00
             0.1687144                   1
 p    3 1.00
             7.8682724   0.068999095584993
             1.8812885    0.31642397975315
             0.5442493    0.74430825237435
 p    1 1.00
             0.1687144                   1
 d    1 1.00
                   0.8                   1

3 0
 s    6 1.00
             3047.5249  0.0018347001629433
             457.36951    0.01403730124668
             103.94869   0.068842606114048
             29.210155    0.23218442062076
              9.286663    0.46794134155879
              3.163927    0.36231203217765
 s    3 1.00
             7.8682724   -0.11933240861517
             1.8812885   -0.16085421161283
             0.5442493     1.1434564825515
 s    1 1.00
             0.1687144                   1
 p    3 1.00
             7.8682724   0.068999095584993
             1.8812885    0.31642397975315
             0.5442493    0.74430825237435
 p    1 1.00
             0.1687144                   1
 d    1 1.00
                   0.8                   1

4 0
 s    6 1.00
             3047.5249  0.0018347001629433
             457.36951    0.01403730124668
             103.94869   0.068842606114048
             29.210155    0.23218442062076
              9.286663    0.46794134155879
              3.163927    0.36231203217765
 s    3 1.00
             7.8682724   -0.11933240861517
             1.8812885   -0.16085421161283
             0.5442493     1.1434564825515
 s    1 1.00
             0.1687144                   1
 p    3 1.00
             7.8682724   0.068999095584993
             1.8812885    0.31642397975315
             0.5442493    0.74430825237435
 p    1 1.00
             0.1687144                   1
 d    1 1.00
                   0.8                   1

5 0
 s    6 1.00
             3047.5249  0.0018347001629433
             457.36951    0.01403730124668
             103.94869   0.068842606114048
             29.210155    0.23218442062076
              9.286663    0.46794134155879
              3.163927    0.36231203217765
 s    3 1.00
             7.8682724   -0.11933240861517
             1.8812885   -0.16085421161283
             0.5442493     1.1434564825515
 s    1 1.00
             0.1687144                   1
 p    3 1.00
             7.8682724   0.068999095584993
             1.8812885    0.31642397975315
             0.5442493    0.74430825237435
 p    1 1.00
             0.1687144                   1
 d    1 1.00
                   0.8                   1

6 0
 s    6 1.00
             3047.5249  0.0018347001629433
             457.36951    0.01403730124668
             103.94869   0.068842606114048
             29.210155    0.23218442062076
              9.286663    0.46794134155879
              3.163927    0.36231203217765
 s    3 1.00
             7.8682724   -0.11933240861517
             1.8812885   -0.16085421161283
             0.5442493     1.1434564825515
 s    1 1.00
             0.1687144                   1
 p    3 1.00
             7.8682724   0.068999095584993
             1.8812885    0.31642397975315
             0.5442493    0.74430825237435
 p    1 1.00
             0.1687144                   1
 d    1 1.00
                   0.8                   1

7 0
 s    3 1.00
             18.731137    0.03349459952309
             2.8253937    0.23472694665786
             0.6401217    0.81375731841339
 s    1 1.00
             0.1612778                   1

8 0
 s    3 1.00
             18.731137    0.03349459952309
             2.8253937    0.23472694665786
             0.6401217    0.81375731841339
 s    1 1.00
             0.1612778                   1

9 0
 s    3 1.00
             18.731137    0.03349459952309
             2.8253937    0.23472694665786
             0.6401217    0.81375731841339
 s    1 1.00
             0.1612778                   1

10 0
 s    3 1.00
             18.731137    0.03349459952309
             2.8253937    0.23472694665786
             0.6401217    0.81375731841339
 s    1 1.00
             0.1612778                   1

11 0
 s    3 1.00
             18.731137    0.03349459952309
             2.8253937    0.23472694665786
             0.6401217    0.81375731841339
 s    1 1.00
             0.1612778                   1

12 0
 s    3 1.00
             18.731137    0.03349459952309
             2.8253937    0.23472694665786
             0.6401217    0.81375731841339
 s    1 1.00
             0.1612778                   1

[5d]
[7f]
[9g]

[MO]
 Sym= A
 Ene=               0
 Spin= Alpha
 Occup=    1.00000
   1     -0.10017399081299
   2      0.06608471975177
   3     0.050601711869821
   4     0.093392919350902
   5    -0.036802692965099
   6    -0.078859148928129
   7     0.024696499380775
   8     -0.01295594238238
   9    -0.058616122468943
  10    -0.0041431508168049
  11    -0.0052510897902515
  12    0.0035749999169131
  13    0.00075624546193334
  14    -0.0087320164141192
  15      0.24561866485759
  16      0.19767245235323
  17      0.13865086268992
  18    -0.064460963098038
  19    -0.053863450207404
  20     -0.13079021707597
  21    -0.0087147738302377
  22    -0.017124332625645
  23     -0.10342127986955
  24    -0.0081710529552384
  25    0.0039749567357107
  26    0.0032893978630204
  27    -0.0022423204173212
  28    -0.0019031404238174
  29      0.65633815688876
  30     0.050770671693158
  31    0.0081695445353788
  32    -0.044533762084648
  33      0.15174246695942
  34     -0.10081044347435
  35    -0.031139997169609
  36       0.0549886929864
  37    -0.077555305222919
  38    -0.0017748693146023
  39    0.0014546444641815
  40    -0.0059088143650661
  41    -0.011319725800748
  42    0.0016843999554347
  43    0.0044200413523461
  44    -0.0081276676084697
  45     -0.01331289184902
  46    -0.013959360676714
  47    -0.009702385139039
  48    -0.018899603780058
  49    -0.0056366445236439
  50    -0.015375529710238
  51    -0.0068841663906438
  52    1.3141478785575e-05
  53    -0.0052510903938082
  54    -0.0018291081911638
  55    -0.0041558418736586
  56    0.0019679986552937
  57    0.0026701724940197
  58    -0.0050547674010741
  59    -0.006429777238165
  60    -0.0097406766021269
  61    -0.0028091880348693
  62     0.033031481504264
  63    -0.0032445579944254
  64    0.0010152516956168
  65      0.03792099571712
  66    -0.0002530927688623
  67    -0.00070513697863665
  68    0.00058734840366655
  69    0.00010012660108052
  70    -0.00035029796844482
  71    0.0056037294476999
  72    -0.011156357579262
  73    -0.022389199816234
  74    -0.019015005477535
  75    -0.006411992067273
  76     0.003051701275136
  77    -0.016334434854487
  78    -0.0035663729888754
  79     0.012055010117226
  80    -0.00039229364628818
  81    -0.003225446191132
  82    -0.0032067653494958
  83    0.0021910375160018
  84    -0.00085802237994861
  85    0.0071322764898192
  86    0.0014515709723635
  87     0.019812523430106
  88    -0.018768545913048
  89    -0.057067544164856
  90    -0.040239701368459
  91     0.010185892180349
  92     0.013352159572037
  93    0.0029259119474128
  94    0.0025172315331849
  95    0.0074204458482612
  96     0.010263563466661
 Sym= A
 Ene=               1
 Spin= Alpha
 Occup=    1.00000
   1     -0.91024490015872
   2     -0.12166601861317
   3    -0.059326504030046
   4    -0.034775784200888
   5    -0.017723958571516
   6    -0.00051223611391538
   7     -0.01234801377254
   8    -0.024562674789587
   9    -0.00024883169883228
  10    0.0053112759973955
  11    -0.00027631657816536
  12    4.1125553619556e-05
  13    0.0019656054466331
  14     0.001974373211542
  15    0.0025716013541037
  16    -0.029043480243616
  17     -0.02843384926243
  18     0.051370838459335
  19    -0.037866185214548
  20    -0.0042784724435875
  21     0.024514752675281
  22    -0.0053168329220468
  23    -0.0034982696391765
  24    0.0014835129331356
  25    4.7102141738917e-05
  26    0.00021999650003311
  27    -0.0017579950771213
  28    0.0042146130000456
  29    -0.0089096923779158
  30    0.0076097101707348
  31     0.014254928395365
  32    -0.0022137276415778
  33     0.012100744740668
  34    -0.0047680761380994
  35    -0.0059161816360687
  36    0.0084423115308114
  37    -0.0039206905203688
  38    -0.00010503630618557
  39    8.8261536356416e-05
  40    -0.00017721846185258
  41    -0.00024550593018702
  42    0.0014557395964507
  43    -0.00072130238021839
  44     0.002330749817374
  45    -0.003188906445737
  46    0.0014356185379345
  47    0.0031892863881344
  48    -0.0014914430123962
  49    0.00093699410065933
  50    -0.0025428742498088
  51    -0.0010936728167762
  52    4.4165095527292e-05
  53    -0.00027631660992504
  54    -6.9637865029488e-05
  55    -0.00025564882124951
  56    0.00022582044414541
  57    -0.0011578219274585
  58    0.0012102952597439
  59    0.0089252123589135
  60    0.0018897253221789
  61    0.0043878026235549
  62    0.0022747938569668
  63    0.0048382755154112
  64    0.0046981102904651
  65     0.002155765531513
  66    -3.7289928748092e-05
  67    -4.8821848217865e-05
  68    0.00016461486021208
  69    -0.00011467614972431
  70    -0.00032457590061283
  71    0.0023198233643936
  72    -0.006290515451617
  73    -0.010864863476195
  74    -0.014277393858422
  75    -0.0099428901911411
  76    0.0027643972027341
  77    -0.0093974586319807
  78    0.0044172749481926
  79    0.0025781858363362
  80    0.00079408254151462
  81    -7.6622926315401e-06
  82    -0.00012183684538385
  83    -0.0011336965842734
  84    -0.0018001060347023
  85    -0.047841414571359
  86    -0.018731420744268
  87    0.0067801924817467
  88    0.0081536124257614
  89    -0.0040867355603868
  90    -0.0052741913805278
  91    -0.00053465113760478
  92    -0.00089353492859449
  93    -0.0017589299846938
  94    -0.00016486728187436
  95    0.0016917849375613
  96    -0.0015539524289816
 Sym= A
 Ene=               2
 Spin= Alpha
 Occup=    1.00000
   1    -0.00033756106887205
   2    0.00038205277927126
   3    0.0026187906430121
   4    -0.00019673152512543
   5    4.6429941325585e-05
   6    -9.3563138014235e-05
   7    -8.6769752864155e-05
   8    -0.0010866624219688
   9    -5.6961759347377e-05
  10    -4.8486535073772e-05
  11    -9.2561045718917e-06
  12    5.9495154000998e-06
  13    -5.4581924195144e-05
  14    1.4376014332752e-05
  15    -0.00024421341261265
  16    -0.00010263812438319
  17    -0.0009431182760944
  18    -0.00010733367371127
  19    -0.00079845975548851
  20    -0.00022638096218715
  21    0.00028463647133115
  22    -0.00058605174335011
  23    -0.00017155449130684
  24    2.9263012452305e-05
  25    5.3133457835507e-06
  26    1.0430753530275e-05
  27    5.2993113579896e-05
  28    -0.00024496376502263
  29    0.0027642031576299
  30    -0.0078939818176355
  31    0.0017271657355214
  32     0.010134230581917
  33    0.0054542785165729
  34    -0.00025609329902126
  35    0.00061383955659532
  36    0.00029136650874651
  37    -0.00019718973454766
  38    0.00072125841538097
  39    7.8111668512456e-06
  40    -7.8347037754049e-06
  41    -0.00060971657114446
  42    -0.0011926039778041
  43       1.0075458954779
  44    -0.0027515284602489
  45     -0.03798906737281
  46     0.001516005332879
  47    0.00073981748452718
  48    -0.00015298779139487
  49    0.00054628420734855
  50    0.00039479979484684
  51    -0.00010823222239067
  52    0.00088093918804053
  53    -9.2561056357797e-06
  54    -7.6798258776739e-06
  55    0.0005092008537685
  56    8.9579904423318e-05
  57    0.0030763468974823
  58    -0.0088339390663908
  59    0.0010003193680346
  60    -0.011915979310032
  61    0.0064872162983103
  62    -2.016991869651e-05
  63    -0.0013602829031839
  64    0.00062927146801767
  65    6.360530210745e-06
  66    0.00074479952218866
  67    -6.4900087791637e-06
  68    3.6160929744491e-06
  69    -0.00062585634472615
  70    0.0013105207363571
  71    -0.00017300614714243
  72    0.00029923317688054
  73    -0.00062720419932065
  74    0.00013861348167614
  75    -0.00090045173768049
  76    9.5424064552929e-06
  77    -0.00023456177130109
  78    -0.00065283878607477
  79    3.1995754144235e-05
  80    1.9168394758478e-05
  81    -3.9921823193049e-06
  82    -1.0200440018362e-06
  83    5.7299555171414e-05
  84    0.00029954473993378
  85    0.00035315398914428
  86    0.00049155659181504
  87    -0.00079776451095276
  88    -0.00086253372767201
  89    0.00089986324626844
  90    0.0016424157732416
  91    -0.011098579437366
  92    -0.0013050726377901
  93    0.0012929416763756
  94    0.0021942100367622
  95    -0.0008054257341714
  96    -0.0010422023453474
 Sym= A
 Ene=               3
 Spin= Alpha
 Occup=    1.00000
   1    0.0031642108069821
   2    -0.0067982736023585
   3    0.0024898842060826
   4    0.0087632627394245
   5    0.0052047575492643
   6    0.00017538829924129
   7    0.00020906896871428
   8    7.2668395741792e-05
   9    0.00013716463976568
  10    0.00067500792986242
  11    -3.0677369194402e-06
  12    -7.0283686315395e-06
  13    -0.0006777433826538
  14    -0.0010619261749019
  15    -0.0001805777753812
  16    2.4316723407857e-05
  17    -0.00091214619866122
  18    -0.00087160314653695
  19    0.00031956126053527
  20    8.5319996122364e-05
  21    -0.00034092194140524
  22    0.00053279031262532
  23    5.9455419985742e-05
  24    1.5490148687016e-05
  25    -7.5821884176836e-06
  26    4.3211906188615e-06
  27    -0.00019838567017301
  28    -7.8264036032374e-05
  29    -9.0566211008775e-05
  30    0.0004065125794229
  31      0.00257585571248
  32    -4.8934961134514e-05
  33    -0.00022929230366743
  34    -1.6624895183098e-05
  35    -0.00097737797188343
  36    0.00041673347537331
  37    -2.8500691126716e-05
  38    -5.2890753493135e-05
  39    9.8801260449146e-07
  40    4.5860188969231e-06
  41    3.6969739940556e-05
  42    -4.3970916689023e-05
  43    -0.00017894498586482
  44    0.00027848599669528
  45    -0.00070198912827405
  46    -0.00066646514714434
  47    0.00053383988199695
  48    -2.8501449972796e-05
  49    -0.00065004210554606
  50    9.3283318821434e-05
  51    -3.8747561886231e-05
  52    1.7712157168457e-05
  53    -3.067737272071e-06
  54    1.0915454089878e-06
  55    0.00023229674250202
  56    0.00020224142758224
  57    0.0031028710257843
  58    -0.0088855199611153
  59    0.00089319719099385
  60    -0.00033402789548935
  61    -0.013637029166927
  62    6.1566838538906e-05
  63    -0.00014710595157265
  64     -0.00159208791211
  65    3.896166923419e-05
  66    0.00073713386603511
  67    -5.5014315706621e-07
  68    8.3811393683934e-06
  69    0.0014358033721248
  70    0.00014711599720327
  71       1.0072079877651
  72    -0.0017431938315263
  73    -0.037258908560868
  74    0.0025479490273594
  75    0.0016498454472126
  76    0.00016351172597253
  77    0.00099405964856179
  78    0.00052328628253002
  79    0.00012691777394761
  80    0.0008362026205234
  81    8.0200596522959e-06
  82    5.260698881672e-07
  83    -0.00012496682542771
  84    0.00055143787922186
  85    0.00076490926655976
  86    0.0013632288280849
  87    -0.00075014790412995
  88    -0.00077905252734028
  89    0.00037934818622971
  90    0.00051094880938627
  91    -0.00079761965181995
  92    -0.0010427758500341
  93    0.0013565285897468
  94     0.002320042951529
  95    -0.011118002086723
  96    -0.0014823343249733
 Sym= A
 Ene=               4
 Spin= Alpha
 Occup=    1.00000
   1    -0.00017727461359665
   2    0.00014748304601016
   3    -0.00068335139934083
   4    -0.00088258924683082
   5    -0.00079974038655454
   6    9.0282991306361e-06
   7    -0.000774905286561
   8    -0.00027571356036001
   9    7.6069007526132e-06
  10    2.940547491714e-05
  11    3.7161408672753e-06
  12    -2.876598988399e-07
  13    0.00024128687141576
  14    -0.00019209634066638
  15    -0.0003597242702774
  16    0.00039062959253965
  17    0.0026416593897392
  18    -5.1214488436351e-05
  19    -2.785972264146e-05
  20    5.2346904940996e-05
  21    -0.00095838183921039
  22    -0.000544208881169
  23    4.4981380042518e-05
  24    -4.6112565832808e-05
  25    -6.5023226877692e-07
  26    -1.9717649558257e-06
  27    3.1478888490925e-05
  28    5.5779612498829e-05
  29    -0.00019812166672049
  30    0.00023766186737778
  31    -0.00060657519127562
  32    -0.0011007357250637
  33    -0.00042550542216829
  34    4.4265602139379e-05
  35    -0.00059877268237464
  36    -0.00056533610354218
  37    3.8008987812707e-05
  38    2.4275321431329e-05
  39    2.9139862801672e-08
  40    2.6778509782117e-06
  41    -0.00028233621041927
  42    0.00010889896480192
  43    0.0030191414220189
  44    -0.0086937744986038
  45    0.0011442728787463
  46     0.011560029351721
  47    -0.0069860997485713
  48    -7.1343088223933e-06
  49    0.0011593504839923
  50    -0.00080244174481416
  51    -6.3378903347291e-06
  52    0.00075207987110206
  53    3.716141294384e-06
  54    -1.8295968740723e-07
  55    -0.00079164347675971
  56    0.0012353087423424
  57       1.0079630928539
  58    -0.0040453205656745
  59    -0.038937890057137
  60    -2.9055697667143e-05
  61    -2.2342394334699e-05
  62    -5.0452916688583e-05
  63    0.00014222486572713
  64    7.9098760982744e-05
  65    -4.3712372564628e-05
  66    0.00093272989788909
  67    -5.5955840611625e-07
  68    -1.9194149055409e-06
  69    -0.00023287565282031
  70    -0.00040510445795136
  71    0.0030298941257284
  72    -0.008715645406478
  73    0.0011322424543789
  74    -0.00031561132085456
  75     0.013495974659026
  76    -4.2371609196714e-05
  77    -0.00013603580600683
  78     0.001413118816157
  79    -3.6739972583366e-05
  80    0.00075320536193327
  81    1.1981156063199e-07
  82    2.6255012420253e-06
  83    0.0014664544231092
  84    -7.2931463290601e-05
  85    -0.00099221459543694
  86    -0.0011303173131127
  87    0.00032154422376843
  88    0.0004882989215103
  89    -0.00091826249005581
  90    -0.001089448558038
  91    0.0012073746951078
  92    0.0020056899525904
  93    -0.011078914190353
  94    -0.0010421405308018
  95    0.0012254169680803
  96    0.0020234763461311
 Sym= A
 Ene=               5
 Spin= Alpha
 Occup=    1.00000
   1    -0.080530104097763
   2     0.052753072111696
   3     0.040126181636921
   4     0.088253242808099
   5    -0.019973316708406
   6    -0.014587721914085
   7     0.022071920639844
   8    -0.0049530718148347
   9     -0.01084271653348
  10    -0.003739871077921
  11    -0.00095217659595411
  12    0.0006613683487515
  13    -0.00069165534860413
  14    -0.009090664869779
  15       0.2785557493783
  16      0.21993246886785
  17      0.14490703864838
  18    -0.048475320935483
  19    -0.099488608917296
  20    -0.023950487560578
  21    -0.006848400289199
  22    -0.028144604768054
  23    -0.018920736214639
  24    -0.0097908227197982
  25    0.00073394653867002
  26    0.00059674810368677
  27    -0.0065208611473923
  28    -0.002058639868805
  29     -0.74359336471477
  30     0.091458804516641
  31     0.090811899725636
  32    -0.011994872656496
  33      0.16332374839874
  34    -0.018406554961863
  35     -0.01347333544692
  36     0.055805545393404
  37    -0.014137537307675
  38    -0.0048934787872468
  39    0.00026788427432323
  40    -0.0010811369693557
  41    -0.011349421302984
  42    -0.00083664290338696
  43    0.0026584764640688
  44    -0.0021642676630657
  45    -0.018728565462189
  46    -0.003118526979856
  47    -0.005526021379507
  48    -0.0034998571205155
  49    -0.0086831712834944
  50    -0.013910473686906
  51    -0.0012763175041994
  52    -0.0010635546799964
  53    -0.00095217670539661
  54    -0.00033851380803757
  55    -0.0029314441199235
  56    0.0037477381491264
  57    0.0031500655364341
  58    -0.0064856196167478
  59    -0.0073285924575808
  60    -0.011552486190258
  61    -0.00066843191833599
  62     0.005862911684598
  63    -0.0041559315361714
  64    0.0024655841608589
  65    0.0068017030280331
  66    -4.1395236794039e-05
  67    -0.00013197658377998
  68    9.6807876184534e-05
  69    0.00011920556242443
  70    -0.00057630382676088
  71    0.0078483588686775
  72     -0.01642803891604
  73    -0.027054361578556
  74    -0.029330833085177
  75    -0.0096771142346222
  76    0.00031897788412165
  77    -0.020495450871094
  78    -0.0047088599904906
  79    0.0020185021349196
  80    -8.7247526332991e-05
  81    -0.00059803829343422
  82    -0.00058119682232439
  83    0.0015074205531691
  84    -0.0012553970310178
  85     0.013947442149588
  86    0.0097041729012546
  87     0.019916101426918
  88    -0.022495923119605
  89    -0.015077890991295
  90    -0.026286973826531
  91    0.0096882722986353
  92     0.013774027202007
  93    0.0021167458347662
  94    0.00093206232594301
  95    0.0089955527562733
  96     0.011242315855957
 Sym= A
 Ene=               6
 Spin= Alpha
 Occup=    1.00000
   1    -0.050461606820369
   2     0.043361950666662
   3     0.017077504326215
   4      0.18164833958329
   5     -0.29844687221436
   6     0.047226935472708
   7     0.060225642343793
   8     -0.15013604981888
   9     0.036870115957995
  10    0.00024493318513525
  11    0.0017020977631198
  12    -0.0019012618976937
  13     0.020611450412256
  14    -0.011954241780976
  15     -0.64804282013121
  16      0.17051512539746
  17      0.13961399849398
  18     -0.19780678340628
  19      0.09260106272721
  20     0.055360234974121
  21    -0.056960683625607
  22     0.049811322637716
  23     0.043887378720681
  24    -0.0065810706129711
  25    -0.0022240366260576
  26    -0.00042402145365965
  27     0.009986662404887
  28    -0.0073449959216967
  29    -0.00074932456716818
  30    -0.010983062132989
  31    -0.014273475828688
  32    -0.0026156882916054
  33     0.013015003210826
  34     0.028243069760396
  35    -0.0071693010648127
  36    -0.0071759804871965
  37     0.020491206162723
  38    -0.0016505115870364
  39    5.5622939768365e-05
  40    0.0027933238502899
  41    -0.0044580858848351
  42    -0.0061665350256916
  43     0.006047885890991
  44    -0.010617470383581
  45    -0.029367869126713
  46     -0.01431330087731
  47    -0.015774285948436
  48    -0.0070073892493711
  49    -0.0086503679170952
  50    -0.016100367116356
  51    -0.0099222289381143
  52    0.00011038763439182
  53    0.0017020979587577
  54    0.00032207704879381
  55    -0.0007407427022208
  56    -0.00014688798853536
  57    0.0046428355683168
  58    -0.011272393414012
  59    -0.0090540096291136
  60    -0.0038534929523576
  61    -0.018475366511864
  62    -0.015140694413788
  63    0.0053496135258636
  64    -0.011431481004587
  65    -0.016939491344732
  66    -0.00052157848177862
  67    -0.00029856965474458
  68    0.00068764587501535
  69    -0.00038992801576983
  70    0.00092357362353762
  71    -0.0021436073504325
  72    0.0082471021193283
  73    -0.0084892021423805
  74    0.0099621374005624
  75    0.0025316034257156
  76     0.011976472948188
  77     -0.01888665263465
  78     0.017275516436345
  79    0.0064566847636392
  80    -0.00070964855359126
  81    0.0019810889195205
  82    0.0016816566654635
  83    0.0097478935504453
  84    -0.0041544647873203
  85     -0.17389002642303
  86     -0.13220732234292
  87    -0.0025741162688823
  88    -0.035408453971111
  89    0.0026518070741816
  90     0.020060421401925
  91    0.0048436018516639
  92    0.0021257848966762
  93    0.0049630210648019
  94    0.0094693762703727
  95     0.015676466180563
  96     0.020316633734162
 Sym= A
 Ene=               7
 Spin= Alpha
 Occup=    1.00000
   1    -0.0098898330909098
   2    0.0045784524299322
   3    -0.0072872011289484
   4    0.0017784279275281
   5     0.012183240709221
   6     0.016556469205438
   7    -0.0048218662662889
   8    0.0098590019363689
   9    0.0080550612118868
  10    -0.00067695590537354
  11    0.0024087277771995
  12    -0.001327583748042
  13    -0.00020480723950449
  14    -0.00030656124369853
  15     0.015103666211249
  16    -0.010812533407088
  17    -0.022304629185385
  18    -0.016897196624809
  19     0.021984035380397
  20     0.055134251018866
  21    -0.0029824753936011
  22     0.022247859472963
  23     0.041339247984258
  24    -0.0016049860219859
  25    -0.0010565768667931
  26    -0.0030717188075974
  27    -0.0026499930907221
  28    0.0073815658561297
  29    -0.039527045552963
  30      0.23207185608988
  31      0.16655263149832
  32     -0.29125102192414
  33     -0.16976997264515
  34     0.070895196472452
  35     -0.10121853708963
  36    -0.057715909639444
  37     0.054937492766027
  38    -0.0097980473112071
  39    -0.0023815506640313
  40    0.0016946410304798
  41     0.010532460976195
  42     0.016987750912074
  43    -0.074495202945545
  44      0.22662481778059
  45      0.16526865394754
  46      0.29751301290295
  47      0.16237905439106
  48     0.048078352507839
  49      0.10213512354351
  50     0.058327215133319
  51     0.035251543559746
  52    -0.0096777669756333
  53    0.0024087280540572
  54    0.0022454303766899
  55    0.0093188222948728
  56     0.018298537151098
  57    0.0083003068638455
  58    -0.017199590668942
  59    -0.027949989393426
  60    -0.022556363392572
  61     0.016539173114821
  62    0.0095005573923168
  63    -0.025137012956112
  64    0.0095993793147704
  65    0.0019673504159746
  66    -0.0013943125158245
  67    0.0020377440311674
  68    -0.0012852142626642
  69    0.0083970854886195
  70    0.0022934498163617
  71    0.0041831761389596
  72    -0.0078633732276825
  73    -0.016931653352698
  74    -0.0061898384194021
  75    0.0093123199978109
  76    -0.0062603850211648
  77    -0.0017262374378507
  78    0.0082030468891448
  79    -0.011630889341425
  80    -0.00017590415691103
  81    0.00071276883071968
  82    -9.1863310884708e-05
  83    0.00021659846601848
  84    0.00065749565551655
  85    0.0079752493986313
  86    0.0026430163727296
  87    0.0088199871410894
  88     0.025294232744294
  89    -0.019855926528514
  90    -0.054300607958299
  91     -0.01854127660192
  92    -0.052284226488447
  93     0.016085515712661
  94     0.031161014711921
  95    0.0013866694530315
  96    0.00039346612535252
 Sym= A
 Ene=               8
 Spin= Alpha
 Occup=    1.00000
   1     0.013897193376937
   2     -0.02184969103004
   3    -0.030282824430113
   4     0.028172767735342
   5     0.010333718306028
   6    0.00082393345514335
   7     0.021655908663719
   8      0.01596984044078
   9    0.00054184816166139
  10    -0.0012249480874473
  11    -0.00025666748056867
  12    -4.6931932926942e-05
  13    -0.0064970801131023
  14    0.0060505284904249
  15     0.005308385429557
  16    -0.0044859781368535
  17    -0.014447382055561
  18     0.011166933691352
  19    -0.0057954621714175
  20    -0.002420622780603
  21     0.009135396716681
  22    -0.0056279967970256
  23     -0.00225749384335
  24    -0.00011818146258234
  25    -2.1436435093181e-05
  26    0.00013221361465342
  27    -0.00084009098176104
  28    -0.00022448162993847
  29    0.00093473571292607
  30    -0.0063434910604588
  31    -0.015415834849093
  32      0.01329596772211
  33    0.0064205093050127
  34    -0.0023676896744467
  35     0.009465631124406
  36    0.0060849044159473
  37    -0.0022118242922079
  38    -8.394276560187e-05
  39    -2.5886432221184e-05
  40    -0.00013683853183966
  41    -0.0010495594340365
  42    0.0001163362635955
  43     0.010068160110808
  44     -0.02234433349452
  45    -0.030712515250494
  46     0.028054973462157
  47    -0.016569417837803
  48    0.00092979997607019
  49     0.021590422425412
  50    -0.019338086548255
  51    0.00063318779196917
  52    -0.0012670111537532
  53    -0.00025666751006985
  54    5.001450039718e-05
  55    -0.0069140410320975
  56    -0.0060559916384497
  57    -0.070259911377679
  58      0.22780751773216