[Molden Format]
made by pyscf v[1.6.4]
[Atoms] (AU)
C   1   6     8.83219251236156    11.86927152263468     0.00000000000000
C   2   6    11.15163290902210    10.53014167090126     0.00000000000000
C   3   6    11.15163290902210     7.85188196743444     0.00000000000000
C   4   6     8.83219251236156     6.51275211570103     0.00000000000000
C   5   6     6.51275211570103     7.85188196743444     0.00000000000000
C   6   6     6.51275211570103    10.53014167090126     0.00000000000000
H   7   1     8.83219251236156    13.94029797159051     0.00000000000000
H   8   1    12.94519276083417    11.56565489537918     0.00000000000000
H   9   1    12.94519276083417     6.81637063268265     0.00000000000000
H   10   1     8.83219251236156     4.44172755647132     0.00000000000000
H   11   1     4.71919226388896     6.81637063268265     0.00000000000000
H   12   1     4.71919226388896    11.56565489537918     0.00000000000000
[GTO]
1 0
 s    6 1.00
             3047.5249  0.0018347001629433
             457.36951    0.01403730124668
             103.94869   0.068842606114048
             29.210155    0.23218442062076
              9.286663    0.46794134155879
              3.163927    0.36231203217765
 s    3 1.00
             7.8682724   -0.11933240861517
             1.8812885   -0.16085421161283
             0.5442493     1.1434564825515
 s    1 1.00
             0.1687144                   1
 p    3 1.00
             7.8682724   0.068999095584993
             1.8812885    0.31642397975315
             0.5442493    0.74430825237435
 p    1 1.00
             0.1687144                   1
 d    1 1.00
                   0.8                   1

2 0
 s    6 1.00
             3047.5249  0.0018347001629433
             457.36951    0.01403730124668
             103.94869   0.068842606114048
             29.210155    0.23218442062076
              9.286663    0.46794134155879
              3.163927    0.36231203217765
 s    3 1.00
             7.8682724   -0.11933240861517
             1.8812885   -0.16085421161283
             0.5442493     1.1434564825515
 s    1 1.00
             0.1687144                   1
 p    3 1.00
             7.8682724   0.068999095584993
             1.8812885    0.31642397975315
             0.5442493    0.74430825237435
 p    1 1.00
             0.1687144                   1
 d    1 1.00
                   0.8                   1

3 0
 s    6 1.00
             3047.5249  0.0018347001629433
             457.36951    0.01403730124668
             103.94869   0.068842606114048
             29.210155    0.23218442062076
              9.286663    0.46794134155879
              3.163927    0.36231203217765
 s    3 1.00
             7.8682724   -0.11933240861517
             1.8812885   -0.16085421161283
             0.5442493     1.1434564825515
 s    1 1.00
             0.1687144                   1
 p    3 1.00
             7.8682724   0.068999095584993
             1.8812885    0.31642397975315
             0.5442493    0.74430825237435
 p    1 1.00
             0.1687144                   1
 d    1 1.00
                   0.8                   1

4 0
 s    6 1.00
             3047.5249  0.0018347001629433
             457.36951    0.01403730124668
             103.94869   0.068842606114048
             29.210155    0.23218442062076
              9.286663    0.46794134155879
              3.163927    0.36231203217765
 s    3 1.00
             7.8682724   -0.11933240861517
             1.8812885   -0.16085421161283
             0.5442493     1.1434564825515
 s    1 1.00
             0.1687144                   1
 p    3 1.00
             7.8682724   0.068999095584993
             1.8812885    0.31642397975315
             0.5442493    0.74430825237435
 p    1 1.00
             0.1687144                   1
 d    1 1.00
                   0.8                   1

5 0
 s    6 1.00
             3047.5249  0.0018347001629433
             457.36951    0.01403730124668
             103.94869   0.068842606114048
             29.210155    0.23218442062076
              9.286663    0.46794134155879
              3.163927    0.36231203217765
 s    3 1.00
             7.8682724   -0.11933240861517
             1.8812885   -0.16085421161283
             0.5442493     1.1434564825515
 s    1 1.00
             0.1687144                   1
 p    3 1.00
             7.8682724   0.068999095584993
             1.8812885    0.31642397975315
             0.5442493    0.74430825237435
 p    1 1.00
             0.1687144                   1
 d    1 1.00
                   0.8                   1

6 0
 s    6 1.00
             3047.5249  0.0018347001629433
             457.36951    0.01403730124668
             103.94869   0.068842606114048
             29.210155    0.23218442062076
              9.286663    0.46794134155879
              3.163927    0.36231203217765
 s    3 1.00
             7.8682724   -0.11933240861517
             1.8812885   -0.16085421161283
             0.5442493     1.1434564825515
 s    1 1.00
             0.1687144                   1
 p    3 1.00
             7.8682724   0.068999095584993
             1.8812885    0.31642397975315
             0.5442493    0.74430825237435
 p    1 1.00
             0.1687144                   1
 d    1 1.00
                   0.8                   1

7 0
 s    3 1.00
             18.731137    0.03349459952309
             2.8253937    0.23472694665786
             0.6401217    0.81375731841339
 s    1 1.00
             0.1612778                   1

8 0
 s    3 1.00
             18.731137    0.03349459952309
             2.8253937    0.23472694665786
             0.6401217    0.81375731841339
 s    1 1.00
             0.1612778                   1

9 0
 s    3 1.00
             18.731137    0.03349459952309
             2.8253937    0.23472694665786
             0.6401217    0.81375731841339
 s    1 1.00
             0.1612778                   1

10 0
 s    3 1.00
             18.731137    0.03349459952309
             2.8253937    0.23472694665786
             0.6401217    0.81375731841339
 s    1 1.00
             0.1612778                   1

11 0
 s    3 1.00
             18.731137    0.03349459952309
             2.8253937    0.23472694665786
             0.6401217    0.81375731841339
 s    1 1.00
             0.1612778                   1

12 0
 s    3 1.00
             18.731137    0.03349459952309
             2.8253937    0.23472694665786
             0.6401217    0.81375731841339
 s    1 1.00
             0.1612778                   1

[5d]
[7f]
[9g]

[MO]
 Sym= A
 Ene=               0
 Spin= Alpha
 Occup=    1.00000
   1      0.40658943465268
   2    0.0093009877384102
   3    -0.0027758507865785
   4    -4.3706806230924e-15
   5    0.00011879668680112
   6    2.5074123825002e-17
   7    6.006576114562e-14
   8    -0.00043661530953362
   9    -1.1439480548423e-16
  10    -2.9371132888163e-05
  11    -6.7995766718251e-18
  12    2.7145382205342e-17
  13    -0.00010987007678604
  14    4.2562986759281e-16
  15      0.40656541642096
  16    0.0093003957903795
  17    -0.0027755226629623
  18    0.00010289701552601
  19    5.9388169304291e-05
  20    7.3569732480654e-19
  21    -0.00037819120147511
  22    -0.00021826456894122
  23    -3.3259151408886e-18
  24    -2.9362452666997e-05
  25    9.7217575157455e-19
  26    -5.9761408213825e-19
  27    5.492435146191e-05
  28    9.5161405233667e-05
  29      0.40653575141665
  30    0.0092996785051916
  31    -0.0027752165057976
  32    0.00010288905119439
  33    -5.9417912356473e-05
  34    -5.0164009108359e-19
  35    -0.00037814644007291
  36    0.0002183780897332
  37    2.9832374886771e-19
  38    -2.9358578878622e-05
  39    1.1147597516928e-19
  40    -8.8557373874771e-20
  41    5.4945747023591e-05
  42    -9.5148164966216e-05
  43      0.40653010339507
  44    0.0092995531345402
  45    -0.0027752384258434
  46    -6.4997590088375e-15
  47    -0.00011881263602948
  48    5.495456796132e-19
  49    -2.0272923112864e-14
  50    0.00043665131743196
  51    -5.734391784875e-19
  52    -2.9363384132262e-05
  53    4.2784575003217e-19
  54    -1.4753826411917e-20
  55    -0.00010986854030852
  56    -7.9472074372139e-15
  57      0.40653575139729
  58    0.0092996785047306
  59    -0.0027752165056394
  60    -0.00010288905119839
  61    -5.9417912357969e-05
  62    1.3400380417751e-18
  63    0.0003781464400279
  64    0.00021837808976505
  65    3.3796522413189e-19
  66    -2.9358578870913e-05
  67    -1.0461393604392e-19
  68    3.1527102923885e-19
  69    5.4945747020079e-05
  70    9.514816497022e-05
  71      0.40656541640829
  72    0.0093003957900645
  73    -0.0027755226627949
  74    -0.00010289701553389
  75    5.9388169299883e-05
  76    -3.5517537604381e-19
  77    0.00037819120155604
  78    -0.00021826456888806
  79    -2.9408864320462e-18
  80    -2.9362452670434e-05
  81    -1.0155137610834e-19
  82    -1.4526110117837e-19
  83    5.4924351456688e-05
  84    -9.5161405233194e-05
  85    -0.00022082299200355
  86    0.0011132274482063
  87    -0.00022081447157538
  88    0.0011131839644544
  89    -0.00022080105897201
  90    0.0011131260931279
  91    -0.00022079616640533
  92    0.0011131117058366
  93    -0.00022080105896371
  94    0.0011131260930756
  95    -0.00022081447156753
  96    0.0011131839644422
 Sym= A
 Ene=               1
 Spin= Alpha
 Occup=    1.00000
   1     -0.57505542301942
   2    -0.013918807320505
   3    0.0059570289933243
   4    -6.9449033210545e-11
   5    0.00015117825357864
   6    -3.5023845410391e-18
   7    2.8157022557871e-10
   8    -0.00034727881697014
   9    -6.6717418749804e-17
  10    7.8100615136308e-05
  11    2.8015208051537e-18
  12    2.7952257301873e-17
  13    2.0912542719959e-05
  14    5.8193579479107e-11
  15     -0.28750133020335
  16    -0.0069587505371843
  17    0.0029780235743581
  18    -7.9334963580776e-05
  19    0.00028857838168952
  20    1.1751548967325e-18
  21    0.00043676760276887
  22    -0.0011035746782244
  23    -5.1892229998127e-19
  24    3.9036649419325e-05
  25    -1.723399782704e-18
  26    3.9037439150725e-19
  27    0.00020490391485608
  28    -0.0001303812315281
  29       0.2875531114329
  30     0.006959960573746
  31    -0.0029784949229564
  32    7.9338222922652e-05
  33    0.00028856930713003
  34    1.3904168650899e-19
  35    -0.00043676050895436
  36    -0.0011035339367629
  37    1.6877341138771e-19
  38    -3.9047001782789e-05
  39    6.0699484588832e-20
  40    -2.4719024662022e-20
  41    -0.00020489313839764
  42    -0.0001303834889524
  43      0.57507810984699
  44     0.013919278871266
  45    -0.0059569523834933
  46    -6.9451980099873e-11
  47    0.00015115551528008
  48    7.3026321180976e-19
  49    2.8157476373647e-10
  50    -0.00034717196920514
  51    -4.407681076909e-19
  52    -7.8089628891689e-05
  53    5.385549331287e-19
  54    -1.6277798665569e-20
  55    -2.0933285255813e-05
  56    -5.8194332737192e-11
  57       0.2875529045533
  58    0.0069599555663958
  59    -0.0029784927800232
  60    -7.9338304740411e-05
  61    0.00028856934008606
  62    7.8459195825041e-19
  63    0.0004367607578724
  64    -0.0011035341181931
  65    3.4162723054777e-19
  66    -3.9046973686974e-05
  67    -6.3391356032553e-20
  68    1.4689725881295e-19
  69    -0.00020489319255752
  70    0.00013038351152975
  71     -0.28750153708198
  72    -0.0069587555445184
  73    0.0029780257173307
  74    7.9334881756292e-05
  75    0.00028857834873451
  76    2.5032755405907e-19
  77    -0.00043676735379322
  78    -0.001103574496848
  79    -1.8487863268306e-18
  80    3.9036677511592e-05
  81    6.3650043040842e-20
  82    -5.6029817758008e-20
  83    0.00020490386069373
  84    0.00013038120894979
  85    0.00026735382006108
  86    -0.001139317948477
  87    0.00013366687845153
  88    -0.00056961604741682
  89    -0.00013369222813309
  90    0.0005697484851227
  91    -0.0002673730553014
  92    0.0011394008052881
  93    -0.00013369213194926
  94    0.00056974807521586
  95    0.00013366697463821
  96    -0.00056961645728419
 Sym= A
 Ene=               2
 Spin= Alpha
 Occup=    1.00000
   1    1.1943258930399e-07
   2    2.8907854734578e-09
   3    -1.2371995085329e-09
   4    -0.0003343825831661
   5    -3.1399512726972e-11
   6    3.9507771781501e-17
   7    0.0013557416098966
   8    7.2092889886118e-11
   9    -3.5204264704031e-17
  10    -1.622144311316e-11
  11    -4.6977208987694e-17
  12    8.9566577374105e-17
  13    -4.3427379747829e-12
  14    0.00028017970640536
  15      0.49802727072753
  16     0.012054363071565
  17    -0.0051589277001054
  18    -0.00019697083587355
  19    7.9330575975265e-05
  20    5.8575824345304e-17
  21    0.00059932465799253
  22    -0.00043669164177703
  23    -7.620683274705e-17
  24    -6.7635202290426e-05
  25    -8.7141730489958e-17
  26    7.4246333049749e-17
  27    0.00013037653900829
  28    -5.4351675347305e-05
  29      0.49801047240396
  30     0.012053936689722
  31    -0.0051586113234069
  32    -0.00019696496080656
  33    -7.9338158119043e-05
  34    2.6686859760394e-18
  35    0.00059928980196606
  36    0.00043673822291569
  37    3.3241614728273e-18
  38    -6.7622881953556e-05
  39    -1.1953379357564e-18
  40    -1.1610873501015e-18
  41    0.00013038476213307
  42    5.4347489724847e-05
  43    -1.1945525973847e-07
  44    -2.8913135305364e-09
  45    1.2373960522638e-09
  46    -0.00033437542238284
  47    -3.1394228682118e-11
  48    1.4093847937084e-18
  49    0.0013556972639166
  50    7.2093933711108e-11
  51    -1.4355185469486e-18
  52    1.6223042119355e-11
  53    -2.9563972973597e-19
  54    -2.9186604769488e-19
  55    4.3476870828259e-12
  56    -0.00028017052484047
  57     -0.49801059186258
  58    -0.012053939581092
  59    0.0051586125607587
  60    -0.00019696492784114
  61    7.9338038249791e-05
  62    -2.2155832135969e-18
  63    0.00059928962051591
  64    -0.00043673776445493
  65    3.0614737670154e-18
  66    6.7622898167217e-05
  67    -1.1748816667805e-19
  68    4.2411901433279e-19
  69    -0.00013038467702363
  70    5.4347435557626e-05
  71     -0.49802715131158
  72    -0.012054360181165
  73    0.0051589264630114
  74    -0.00019697086882612
  75    -7.9330695855447e-05
  76    -8.3769476320003e-20
  77    0.0005993248393723
  78    0.0004366921002682
  79    -4.1637046858445e-18
  80    6.763518608008e-05
  81    -1.2000341737029e-18
  82    1.0358685814745e-18
  83    -0.00013037662412413
  84    -5.4351729504017e-05
  85    -5.5522935938401e-11
  86    2.3663458156181e-10
  87    -0.00023154441951843
  88    0.00098673013522726
  89    -0.0002315408891946
  90    0.00098670150863654
  91    5.5536330123514e-11
  92    -2.3669146136559e-10
  93    0.00023154094473691
  94    -0.0009867017453306
  95    0.00023154436399855
  96    -0.00098672989866216
 Sym= A
 Ene=               3
 Spin= Alpha
 Occup=    1.00000
   1       0.5752298041196
   2     0.014633148603391
   3    -0.010920418191438
   4    -4.7434650869997e-11
   5    -0.0002997927079095
   6    -3.7967921765828e-17
   7    2.928515660289e-10
   8    0.0018495212136622
   9    6.3847952209414e-17
  10    -0.00043379086799671
  11    -1.771176655232e-17
  12    -8.2447880060672e-17
  13    0.0002523128582145
  14    6.1016125204421e-11
  15     -0.28764086347949
  16    -0.0073172213825971
  17    0.0054607284452008
  18    0.00022390118667472
  19    -8.800253143981e-05
  20    6.559942169794e-19
  21    -0.0013818142737369
  22    0.00054358832628968
  23    3.1668984955442e-18
  24    0.00021690678414562
  25    -1.4071943102395e-18
  26    7.3191992037014e-19
  27    -0.00014652612453039
  28    0.00023027337084465
  29     -0.28759164629844
  30    -0.0073159227471832
  31    0.0054591256962053
  32    0.00022388235086278
  33    8.8024434507785e-05
  34    8.5222700562193e-19
  35    -0.0013813655474643
  36    -0.0005438912424529
  37    -6.8079181566571e-20
  38    0.00021686774638225
  39    -1.7572322943733e-19
  40    2.9584479866402e-20
  41    -0.00014654443717234
  42    -0.00023025834958503
  43      0.57520925022311
  44     0.014632545107305
  45    -0.010919110523235
  46    4.7435339078822e-11
  47    0.00029977267624691
  48     2.43242734075e-19
  49    -2.9285313132108e-10
  50    -0.0018489976017798
  51    -1.1094077785555e-19
  52    -0.00043375591925114
  53    3.7849057490994e-19
  54    -3.2002061099948e-20
  55    0.00025228891406355
  56    6.1014987191941e-11
  57      -0.2875914287852
  58    -0.0073159172139314
  59    0.0054591215670444
  60    -0.00022388227640786
  61    8.8024532268438e-05
  62    -1.2908826800578e-18
  63    0.0013813650882921
  64    -0.00054389184569639
  65    2.0555538635917e-19
  66    0.00021686758235539
  67    -2.0630801903809e-20
  68    -1.8945836721083e-19
  69    -0.00014654453771613
  70    0.00023025829747045
  71     -0.28764108099392
  72    -0.0073172269158747
  73    0.0054607325743686
  74    -0.0002239012611299
  75    -8.8002433681447e-05
  76    8.0727955327982e-19
  77    0.0013818147329077
  78    0.00054358772304931
  79    1.8325677488869e-18
  80    0.00021690694817302
  81    7.2164901346171e-19
  82    1.6436088915016e-19
  83    -0.0001465260239864
  84    -0.00023027342295936
  85    -0.00013718026139215
  86    0.0010068696154718
  87    6.8602232808875e-05
  88    -0.000503469392393
  89    6.8582751621589e-05
  90    -0.00050346266695876
  91    -0.00013717482411861
  92    0.0010069208985083
  93    6.8582699747453e-05
  94    -0.00050346228621463
  95    6.8602284683189e-05
  96    -0.00050346977314003
 Sym= A
 Ene=               4
 Spin= Alpha
 Occup=    1.00000
   1    -1.2559000707802e-07
   2    -3.1948685976387e-09
   3    2.384395153141e-09
   4    -0.00021727166915964
   5    6.5453978073595e-11
   6    -9.924855968814e-17
   7    0.0013413778702265
   8    -4.0386924480626e-10
   9    1.206332109518e-16
  10    9.4710398026185e-11
  11    -1.4848533809418e-17
  12    -1.8529967412684e-18
  13    -5.5088556112637e-11
  14    0.00027947439439706
  15      0.49815019729944
  16     0.012672302145888
  17    -0.0094567324145564
  18    -0.00017051334930722
  19    -0.00022389370700364
  20    -3.228751993443e-17
  21    0.0010515814365345
  22     0.001381600729814
  23    3.7017180220744e-17
  24    -0.00037565801358575
  25    -5.8419568164528e-17
  26    7.4515919667621e-18
  27    -0.00023026923376573
  28    -0.00011935401226767
  29     -0.49816674567793
  30    -0.012672703475688
  31    0.0094569027757473
  32    0.00017051956063863
  33    -0.00022389129948612
  34    -4.4193166428253e-18
  35    -0.0010516002369555
  36    0.0013815871664231
  37    -6.0532845058842e-19
  38    0.0003756603743303
  39    -1.3643768364945e-18
  40    -7.0622324976321e-19
  41    0.0002302645055179
  42    -0.00011935555612292
  43    -1.2556870583847e-07
  44    -3.1942868811579e-09
  45    2.3835101908058e-09
  46    0.00021728302049641
  47    -6.5441166449815e-11
  48    -1.5503112175715e-18
  49    -0.0013414224881446
  50    4.0356070496258e-10
  51    1.7838348110898e-18
  52    9.4692152160764e-11
  53    -4.653512442488e-19
  54    -4.1374433999615e-20
  55    -5.5076779382957e-11
  56    0.00027948398758313
  57      0.49816687124345
  58      0.01267270666986
  59    -0.0094569051589217
  60    0.00017051965838533
  61    0.00022389126104981
  62    2.2843281048695e-18
  63    -0.0010516008399108
  64    -0.0013815869288794
  65    -2.0269478263824e-18
  66    -0.00037566046901283
  67    2.2159465738607e-19
  68    5.8066836298419e-19
  69    -0.00023026444152653
  70    -0.00011935565665563
  71     -0.49815007169238
  72    -0.012672298950586
  73    0.0094567300297311
  74    -0.00017051325153637
  75    0.00022389374543159
  76    -1.1954645942162e-18
  77    0.0010515808330182
  78    -0.0013816009671096
  79    2.2345299492961e-18
  80    0.00037565791886448
  81    -9.3003958250856e-19
  82    9.521462205641e-19
  83    0.00023026929774137
  84    -0.00011935391171564
  85    2.9949933428102e-11
  86    -2.1981876400301e-10
  87    -0.00011879761845437
  88    0.00087199086749281
  89    0.00011880572655199
  90    -0.00087202435793296
  91    2.9944187310371e-11
  92    -2.1982797891336e-10
  93    -0.00011880575649367
  94    0.0008720245777836
  95    0.00011879758849331
  96    -0.00087199064765896
 Sym= A
 Ene=               5
 Spin= Alpha
 Occup=    1.00000
   1     -0.40681536643641
   2    -0.010951450736115
   3     0.015440808921873
   4    -6.2502777562153e-16
   5    0.00025429375328677
   6    -3.4789945283079e-17
   7    5.7424004325134e-14
   8    -0.0054908165512071
   9    1.3274963597433e-16
  10    0.00038934499626721
  11    1.6161621544297e-18
  12    5.5697313120218e-17
  13    -0.00022717131525591
  14    -6.6961438637167e-15
  15      0.40683814570423
  16     0.010952019833887
  17    -0.015441163327588
  18    -0.00022022702641503
  19    -0.00012716174748669
  20    -1.6041206064894e-18
  21    0.0047551958569901
  22    0.0027454914080244
  23    2.434809343736e-18
  24    -0.00038935700682238
  25    1.4564737305537e-18
  26    -3.760211157837e-19
  27    -0.00011360074723543
  28    -0.00019673350919059
  29     -0.40686628713495
  30    -0.010952736488767
  31     0.015441698537732
  32    0.00022024877751129
  33    -0.00012715328740083
  34    3.7359054027728e-19
  35    -0.0047553322713285
  36    0.0027454384424248
  37    -3.8862245212281e-19
  38    0.00038937842890117
  39    -1.9211195874649e-19
  40    -1.1811009825849e-19
  41    0.00011358598226019
  42    -0.00019675581147304
  43      0.40687164800499
  44     0.010952884016259
  45    -0.015441879333319
  46    -4.4113145116846e-15
  47    0.00025432296763369
  48    -1.2293191194143e-19
  49    1.3668077931942e-15
  50    -0.0054909998636868
  51    -4.8272550658818e-20
  52    -0.0003893878403034
  53    2.3033585930751e-19
  54    -3.9985613401885e-20
  55    0.00022719517938079
  56    -5.9258590802934e-15
  57     -0.40686628715328
  58    -0.010952736489229
  59     0.015441698538084
  60    -0.00022024877751593
  61    -0.00012715328740741
  62    -1.5784530354712e-18
  63    0.0047553322713319
  64    0.0027454384425218
  65    3.8770129937411e-19
  66    0.00038937842891251
  67    -2.195186352546e-20
  68    -1.352365867248e-19
  69    0.00011358598226414
  70    0.00019675581147778
  71      0.40683814571591
  72     0.010952019834181
  73     -0.01544116332778
  74    0.00022022702642094
  75    -0.00012716174749896
  76    5.0624510645674e-19
  77    -0.0047551958569733
  78    0.0027454914081762
  79    1.9811149898707e-18
  80    -0.00038935700683481
  81    1.043047787338e-18
  82    4.6137288725998e-21
  83    -0.00011360074723902
  84    0.00019673350919683
  85    0.00015852961102266
  86    0.00012535969168587
  87    -0.00015853744193479
  88    -0.00012531776510872
  89    0.00015854452943043
  90    0.00012526896907769
  91    -0.0001585437852525
  92    -0.00012526210329202
  93    0.00015854452943315
  94    0.00012526896904668
  95    -0.00015853744194075
  96    -0.00012531776510427
 Sym= A
 Ene=               6
 Spin= Alpha
 Occup=    1.00000
   1    -0.092067941181468
   2      0.17805271704133
   3         0.11641513402
   4    7.882640240795e-15
   5    -0.057042590686228
   6    -6.0112606319816e-17
   7    -7.3654643079974e-14
   8    -0.0063935664908125
   9    6.3805995780529e-17
  10    -0.010287269944874
  11    -4.1995864818457e-17
  12    1.2379841282266e-16
  13    0.0019456473088169
  14    -5.8163246903893e-16
  15      -0.0920679478699
  16        0.178052724347
  17      0.11641516734257
  18    -0.049400291981368
  19    -0.028521240759668
  20    9.1521339219207e-17
  21    -0.005537034264374
  22    -0.0031968251956861
  23     3.85400741043e-17
  24    -0.010287273951489
  25    -2.2493286365111e-18
  26    3.2678202233519e-18
  27    -0.00097282481597118
  28    -0.0016849764004567
  29    -0.092067976167601
  30      0.17805277767359
  31       0.1164151856446
  32    -0.049400283308782
  33     0.028521207338756
  34    1.1431035039923e-17
  35    -0.0055370531753506
  36    0.0031968008207718
  37    5.4888765644332e-19
  38    -0.010287277199156
  39    -1.7508753707261e-18
  40    4.7355975027636e-18
  41    -0.00097281518423927
  42    0.0016849789235127
  43    -0.092067997776778
  44      0.17805282369476
  45      0.11641517062054
  46    8.3940254104814e-15
  47     0.057042542244059
  48    1.3154926205464e-18
  49    2.3615527190201e-13
  50    0.0063935748685907
  51    1.7633732739069e-19
  52     -0.01028727644015
  53    1.5108295532178e-18
  54    2.3825631946382e-18
  55    0.0019456420471418
  56    8.1580167219427e-15
  57    -0.092067976167578
  58      0.17805277767355
  59      0.11641518564463
  60      0.04940028330877
  61     0.028521207338758
  62    1.3059088226344e-17
  63    0.0055370531756338
  64    0.0031968008204194
  65    1.4009510864334e-17
  66    -0.010287277199155
  67    2.0236390016929e-18
  68    3.5819368775858e-18
  69    -0.00097281518422906
  70    -0.0016849789235201
  71    -0.092067947869882
  72      0.17805272434693
  73      0.11641516734277
  74     0.049400291981382
  75    -0.028521240759657
  76    2.607027241246e-17
  77    0.0055370342641571
  78    -0.003196825195884
  79    2.2820618574748e-17
  80     -0.01028727395149
  81    -1.1205312467224e-17
  82    -6.1410189629273e-18
  83    -0.00097282481597672
  84    0.0016849764004568
  85      0.03593887594015
  86    0.0035611934414803
  87     0.035938936213285
  88    0.0035612225664622
  89     0.035938984659322
  90    0.0035612290002796
  91     0.035938972832113
  92    0.0035612063085924
  93     0.035938984659311
  94     0.003561229000331
  95     0.035938936213261
  96    0.0035612225663744
 Sym= A
 Ene=               7
 Spin= Alpha
 Occup=    1.00000
   1      0.12774200208544
   2     -0.24974159791236
   3     -0.19794375430662
   4    1.7872347914678e-14
   5     0.025444994814333
   6    -3.0708091320864e-17
   7    -2.198398048881e-13
   8    -0.0038065878103273
   9    1.4347253624303e-16
  10     0.012755850674582
  11    -5.2625323397678e-17
  12     1.11909031906e-16
  13    -0.0016405267486936
  14    2.3946364067312e-15
  15     0.063871052320037
  16     -0.12487089662343
  17    -0.098972005266477
  18     0.059828660303586
  19    -0.078181409627889
  20    -1.8037244432213e-17
  21    0.0057401193890904
  22    -0.013748652742193
  23    1.2390807069341e-17
  24    0.0063779316827525
  25    -1.4175561567041e-19
  26    -3.7078653873675e-18
  27    -0.0086626810873913
  28    0.0059485503229054
  29    -0.063870996042962
  30      0.12487078825855
  31       0.0989719153617
  32    -0.059828609433543
  33     -0.07818146377337
  34    1.6348645875058e-17
  35    -0.0057401026255795
  36    -0.013748670514911
  37    1.6996759102053e-18
  38    -0.0063779260815692
  39    -2.5357545125785e-18
  40    3.561732969242e-18
  41    0.0086626860293931
  42    0.0059485539072112
  43     -0.12774201376586
  44      0.24974162145481
  45      0.19794376574936
  46    2.2275699298515e-14
  47     0.025444792605566
  48    2.4171823225854e-17
  49    1.4418037947768e-13
  50    -0.0038065897097354
  51    1.3393790961061e-17
  52    -0.012755853877016
  53    2.0628127800036e-18
  54    2.4619621344105e-18
  55    0.0016405099204968
  56    4.3735361654727e-15
  57    -0.063870996042912
  58       0.1248707882585
  59     0.098971915361303
  60     0.059828609433539
  61    -0.078181463773375
  62    1.5131190432726e-17
  63    0.0057401026257107
  64    -0.013748670515302
  65    2.3370982652169e-17
  66    -0.0063779260815575
  67    7.8938143554225e-19
  68    -4.5595420439589e-20
  69    0.0086626860294071
  70    -0.0059485539072176
  71     0.063871052320057
  72      -0.1248708966235
  73    -0.098972005266388
  74    -0.059828660303593
  75    -0.078181409627851
  76    3.1042634177381e-17
  77    -0.0057401193891711
  78     -0.01374865274269
  79    1.1826140451677e-17
  80    0.0063779316827489
  81    -2.0321198589488e-17
  82    -3.6402599805397e-18
  83    -0.0086626810874026
  84    -0.0059485503229092
  85    -0.076442605434913
  86    -0.015615517872134
  87    -0.038221402640494
  88    -0.0078077974660812
  89     0.038221393129824
  90    0.0078077842214344
  91      0.07644277627008
  92     0.015615549397204
  93       0.0382213931298
  94    0.0078077842214465
  95    -0.038221402640498
  96    -0.0078077974659922
 Sym= A
 Ene=               8
 Spin= Alpha
 Occup=    1.00000
   1    5.2870498378975e-15
   2    -3.3933186200877e-14
   3    -2.9278830683001e-14
   4     -0.11272350802174
   5    -1.2256283731756e-15
   6    -8.0122359891271e-16
   7    -0.017062744934232
   8    9.8229817372243e-14
   9    7.0513087423568e-16
  10    -1.2638483392364e-15
  11    7.3188284335033e-17
  12    -5.7175179662656e-18
  13    1.3255455760808e-15
  14     0.012097085397147
  15       0.1106278084079
  16     -0.21628255093124
  17     -0.17142433923683
  18    -0.0090972594297695
  19     0.059828592359211
  20    -1.9726174916948e-16
  21    -0.0071206125905736
  22    0.0057400966732356
  23    -7.6052955321242e-16
  24     0.011046892249799
  25    5.7496622115485e-17
  26    2.602899692656e-17
  27    0.0059485599865956
  28    -0.0017938864049526
  29      0.11062784764333
  30     -0.21628262708806
  31     -0.17142439775124
  32    -0.0090973222688235
  33    -0.059828549839652
  34    -1.4375622969049e-16
  35    -0.0071205946616414
  36    -0.0057400904519127
  37    -8.2110415264156e-17
  38     0.011046897332605
  39    8.1647599994688e-18
  40    -1.767596738431e-17
  41    0.0059485430015856
  42     0.001793888239528
  43    -3.8962024400432e-14
  44    1.2309103458556e-14
  45    4.3385536946857e-13
  46     -0.11272353978198
  47    -1.9942752827208e-15
  48    -5.6811508079427e-17
  49    -0.017062742723024
  50    3.2146143106914e-13