[Molden Format]
made by pyscf v[1.6.4]
[Atoms] (AU)
C   1   6     8.83219251236156    11.86927152263468     0.00000000000000
C   2   6    11.15163290902210    10.53014167090126     0.00000000000000
C   3   6    11.15163290902210     7.85188196743444     0.00000000000000
C   4   6     8.83219251236156     6.51275211570103     0.00000000000000
C   5   6     6.51275211570103     7.85188196743444     0.00000000000000
C   6   6     6.51275211570103    10.53014167090126     0.00000000000000
H   7   1     8.83219251236156    13.94029797159051     0.00000000000000
H   8   1    12.94519276083417    11.56565489537918     0.00000000000000
H   9   1    12.94519276083417     6.81637063268265     0.00000000000000
H   10   1     8.83219251236156     4.44172755647132     0.00000000000000
H   11   1     4.71919226388896     6.81637063268265     0.00000000000000
H   12   1     4.71919226388896    11.56565489537918     0.00000000000000
[GTO]
1 0
 s    6 1.00
             3047.5249  0.0018347001629433
             457.36951    0.01403730124668
             103.94869   0.068842606114048
             29.210155    0.23218442062076
              9.286663    0.46794134155879
              3.163927    0.36231203217765
 s    3 1.00
             7.8682724   -0.11933240861517
             1.8812885   -0.16085421161283
             0.5442493     1.1434564825515
 s    1 1.00
             0.1687144                   1
 p    3 1.00
             7.8682724   0.068999095584993
             1.8812885    0.31642397975315
             0.5442493    0.74430825237435
 p    1 1.00
             0.1687144                   1
 d    1 1.00
                   0.8                   1

2 0
 s    6 1.00
             3047.5249  0.0018347001629433
             457.36951    0.01403730124668
             103.94869   0.068842606114048
             29.210155    0.23218442062076
              9.286663    0.46794134155879
              3.163927    0.36231203217765
 s    3 1.00
             7.8682724   -0.11933240861517
             1.8812885   -0.16085421161283
             0.5442493     1.1434564825515
 s    1 1.00
             0.1687144                   1
 p    3 1.00
             7.8682724   0.068999095584993
             1.8812885    0.31642397975315
             0.5442493    0.74430825237435
 p    1 1.00
             0.1687144                   1
 d    1 1.00
                   0.8                   1

3 0
 s    6 1.00
             3047.5249  0.0018347001629433
             457.36951    0.01403730124668
             103.94869   0.068842606114048
             29.210155    0.23218442062076
              9.286663    0.46794134155879
              3.163927    0.36231203217765
 s    3 1.00
             7.8682724   -0.11933240861517
             1.8812885   -0.16085421161283
             0.5442493     1.1434564825515
 s    1 1.00
             0.1687144                   1
 p    3 1.00
             7.8682724   0.068999095584993
             1.8812885    0.31642397975315
             0.5442493    0.74430825237435
 p    1 1.00
             0.1687144                   1
 d    1 1.00
                   0.8                   1

4 0
 s    6 1.00
             3047.5249  0.0018347001629433
             457.36951    0.01403730124668
             103.94869   0.068842606114048
             29.210155    0.23218442062076
              9.286663    0.46794134155879
              3.163927    0.36231203217765
 s    3 1.00
             7.8682724   -0.11933240861517
             1.8812885   -0.16085421161283
             0.5442493     1.1434564825515
 s    1 1.00
             0.1687144                   1
 p    3 1.00
             7.8682724   0.068999095584993
             1.8812885    0.31642397975315
             0.5442493    0.74430825237435
 p    1 1.00
             0.1687144                   1
 d    1 1.00
                   0.8                   1

5 0
 s    6 1.00
             3047.5249  0.0018347001629433
             457.36951    0.01403730124668
             103.94869   0.068842606114048
             29.210155    0.23218442062076
              9.286663    0.46794134155879
              3.163927    0.36231203217765
 s    3 1.00
             7.8682724   -0.11933240861517
             1.8812885   -0.16085421161283
             0.5442493     1.1434564825515
 s    1 1.00
             0.1687144                   1
 p    3 1.00
             7.8682724   0.068999095584993
             1.8812885    0.31642397975315
             0.5442493    0.74430825237435
 p    1 1.00
             0.1687144                   1
 d    1 1.00
                   0.8                   1

6 0
 s    6 1.00
             3047.5249  0.0018347001629433
             457.36951    0.01403730124668
             103.94869   0.068842606114048
             29.210155    0.23218442062076
              9.286663    0.46794134155879
              3.163927    0.36231203217765
 s    3 1.00
             7.8682724   -0.11933240861517
             1.8812885   -0.16085421161283
             0.5442493     1.1434564825515
 s    1 1.00
             0.1687144                   1
 p    3 1.00
             7.8682724   0.068999095584993
             1.8812885    0.31642397975315
             0.5442493    0.74430825237435
 p    1 1.00
             0.1687144                   1
 d    1 1.00
                   0.8                   1

7 0
 s    3 1.00
             18.731137    0.03349459952309
             2.8253937    0.23472694665786
             0.6401217    0.81375731841339
 s    1 1.00
             0.1612778                   1

8 0
 s    3 1.00
             18.731137    0.03349459952309
             2.8253937    0.23472694665786
             0.6401217    0.81375731841339
 s    1 1.00
             0.1612778                   1

9 0
 s    3 1.00
             18.731137    0.03349459952309
             2.8253937    0.23472694665786
             0.6401217    0.81375731841339
 s    1 1.00
             0.1612778                   1

10 0
 s    3 1.00
             18.731137    0.03349459952309
             2.8253937    0.23472694665786
             0.6401217    0.81375731841339
 s    1 1.00
             0.1612778                   1

11 0
 s    3 1.00
             18.731137    0.03349459952309
             2.8253937    0.23472694665786
             0.6401217    0.81375731841339
 s    1 1.00
             0.1612778                   1

12 0
 s    3 1.00
             18.731137    0.03349459952309
             2.8253937    0.23472694665786
             0.6401217    0.81375731841339
 s    1 1.00
             0.1612778                   1

[5d]
[7f]
[9g]

[MO]
 Sym= A
 Ene=               0
 Spin= Alpha
 Occup=    1.00000
   1    0.0020877405456953
   2     -0.00623552907699
   3    0.00023023412913103
   4    -0.009314024571922
   5    0.0049717744415772
   6    -4.4669839165362e-17
   7    -0.0014794353987724
   8    0.00070736736148188
   9    2.790152393826e-17
  10    0.00055380975516159
  11    -3.0825323674859e-18
  12    4.9178840760184e-17
  13    -0.00045742781614503
  14    0.0007702922030452
  15      0.71270264625225
  16    -0.0032305431488143
  17    -0.026232349619055
  18    -3.939044150215e-05
  19    -0.0010147394313317
  20    -1.7019183126131e-17
  21    -0.00093929267236012
  22    -0.00090506044621327
  23    3.6209441095995e-19
  24    0.0006623055897541
  25    -4.2727157485167e-17
  26    5.3021131973884e-19
  27    -0.00021773365347665
  28    -0.00027267810107155
  29    0.0018637225769227
  30    -0.0055360585030865
  31    0.00078223857043872
  32    -0.00037070796596618
  33    -0.0095488929185989
  34    -1.2663646408706e-17
  35    -0.00019064621515938
  36    -0.0012354766515549
  37    -3.3267522821036e-18
  38    0.00053538175551666
  39    -3.5369157133004e-19
  40    5.3840796675495e-18
  41    0.00081769201239796
  42    1.9867003618571e-05
  43    0.0020876078390415
  44    -0.006235605208034
  45    0.00023050826431444
  46    0.0093136755861429
  47    -0.0049716189888076
  48    -4.4331110064169e-17
  49    0.0014795273697843
  50    -0.00070665951721015
  51    -2.0843232044975e-17
  52    0.00055377493175937
  53    -2.3572689624368e-18
  54    1.9518745911285e-18
  55    -0.00045730373781264
  56    0.00077030468481354
  57       0.7127015746922
  58    -0.0032272063199969
  59    -0.026229964391646
  60    3.6057478668576e-05
  61    0.0010125811125831
  62    -3.7462587313708e-17
  63    0.00093702785745598
  64    0.00090367075691599
  65    -3.6204534064833e-17
  66    0.0006621085582112
  67    -4.3146698794256e-18
  68    1.7184479516794e-18
  69    -0.00021756437644374
  70    -0.00027241402360808
  71    0.0018637776749898
  72    -0.0055362566345751
  73    0.00078242198533574
  74    0.00037048581893967
  75    0.0095488301404558
  76    -1.5280615249641e-17
  77    0.00019122157895143
  78    0.0012353317974243
  79    -7.6589984686946e-18
  80    0.0005353485149683
  81    9.491423615783e-19
  82    2.4671636815597e-18
  83    0.00081764825540825
  84    1.9966047154471e-05
  85    0.00052369208183168
  86    0.00097579089752276
  87    -0.0082166956040516
  88    -0.00073963256414519
  89    0.00035845853604221
  90    0.00063084063795541
  91    0.00052345689612942
  92    0.00097577722375817
  93    -0.0082129157494981
  94    -0.00073753099800781
  95    0.0003583756713088
  96    0.00063095856436227
 Sym= A
 Ene=               1
 Spin= Alpha
 Occup=    1.00000
   1     -0.71343696077878
   2    0.0046408466678289
   3     0.030564334056458
   4     -1.5368178636e-06
   5    -0.00026296519765006
   6    -1.9544215625023e-16
   7    -5.4938338821435e-07
   8    -0.00062474608115228
   9    -1.2707439333639e-16
  10    -0.00076552916794744
  11    8.8618505737899e-18
  12    5.7834164489396e-17
  13    -0.00037045226035351
  14    9.2705047873369e-08
  15    -0.002446705453429
  16    0.0069380781758624
  17    -0.00073715951438096
  18    -0.0089994387005353
  19    0.0041674252371592
  20    -1.0172857321747e-16
  21    -0.00091689780209045
  22    -0.0001119989074658
  23    -8.115105059553e-17
  24    -0.00054614369485456
  25    7.0208217247875e-18
  26    -3.9907275441831e-18
  27    0.00055427975704933
  28    -0.0011842974823865
  29    0.0024470467537355
  30    -0.0069388480217792
  31    0.00073660201506898
  32    0.0090003807453422
  33    0.0041680991510852
  34    2.3238502962168e-17
  35    0.00091716796790934
  36    -0.00011151759926995
  37    2.9254970233049e-17
  38    0.00054618006397452
  39    -3.0452097264928e-18
  40    -6.5856641688587e-18
  41    -0.00055433428655934
  42    -0.0011842790713812
  43      0.71343682932468
  44    -0.0046403544225419
  45    -0.030563691494638
  46    6.3032548602116e-07
  47    -0.00026514101889278
  48    8.1424143587177e-17
  49    2.5353327302273e-07
  50    -0.00062589365665408
  51    7.8516732502244e-17
  52    0.00076548679087645
  53    7.883326549205e-19
  54    1.0420108932476e-18
  55    0.00037028701591381
  56    3.8906605235623e-08
  57    0.0024472683777139
  58    -0.0069393308787893
  59    0.0007362203329845
  60    -0.0090010557559569
  61    0.0041683228920735
  62    1.2996362822054e-17
  63    -0.00091749522301473
  64    -0.00011149539517311
  65    2.0156512819497e-17
  66    0.00054618598065219
  67    2.9768628286814e-18
  68    -7.0675296961573e-18
  69    -0.00055434406055317
  70    0.0011843734224457
  71    -0.0024472223433631
  72    0.0069392592757183
  73    -0.0007362347788873
  74    0.0090010817194992
  75    0.0041683655827845
  76    -1.1566477864986e-16
  77    0.00091759654655718
  78    -0.00011168634389653
  79    -9.1672242458658e-17
  80    -0.00054617872796459
  81    -6.2355380159417e-18
  82    -3.9225480368948e-18
  83    0.00055429446410761
  84    0.0011844239519812
  85    0.0084989167671173
  86    0.0011529070080499
  87    -0.0014363082166959
  88    -0.0022320403809031
  89    0.0014361896209281
  90    0.0022319928482248
  91    -0.0084973253429323
  92    -0.0011518039029524
  93     0.001436437608046
  94    0.0022323936125909
  95    -0.0014365951914708
  96    -0.0022325831974585
 Sym= A
 Ene=               2
 Spin= Alpha
 Occup=    1.00000
   1    0.0024449589332206
   2    -0.0069369534073693
   3    0.00074203343806289
   4    -0.0081807022938957
   5      0.00569647635441
   6    -1.416442274555e-16
   7    -0.00041551850083121
   8    0.00083614768110839
   9    5.1658126362962e-17
  10    0.00054578704123866
  11    -3.6655021041412e-17
  12    9.5538424443928e-17
  13    -0.00074640193802786
  14    0.0010583566790882
  15      0.71334374386012
  16    -0.0043349044530044
  17    -0.030330913337383
  18    0.00025033052654524
  19    -0.00026158452017823
  20    -1.0724257982344e-16
  21    0.00055186711024248
  22    0.00018500986619094
  23    -2.1550582793106e-16
  24    0.00075278868931808
  25    -5.2530056942523e-17
  26    5.4104328253038e-17
  27    -0.00020727404770075
  28    -0.00031730131348939
  29    0.0023670516553566
  30    -0.0066787954631461
  31    0.0009414569282498
  32    0.00088873377616708
  33    -0.0094582676717391
  34    -6.2793489502998e-17
  35    0.00053713794902871
  36    -0.00059281745918842
  37    -4.6931544464218e-17
  38    0.00053537649528048
  39    -1.4892291889637e-18
  40    -8.9351518196484e-18
  41    0.0012775390510873
  42    -0.00011226682587757
  43    -0.0024448282414383
  44    0.0069368934181754
  45    -0.00074194035309592
  46    -0.008180327072138
  47     0.005696413647108
  48    4.7660402890597e-17
  49    -0.00041571416999825
  50    0.00083582048030428
  51    4.8185510265517e-17
  52    -0.00054576912895125
  53    -4.7281589533212e-18
  54    2.4703044434235e-19
  55    0.00074626898190649
  56    -0.001058328049999
  57     -0.71334274908706
  58    0.0043314862219646
  59     0.030327870593679
  60    0.0002534802751812
  61    -0.0002595948182658
  62    8.1001273220384e-17
  63    0.00055373770633956
  64    0.00018617783671902
  65    7.9639813089908e-17
  66    -0.00075258667226356
  67    1.4008660068491e-18
  68    -1.5466323939872e-18
  69    0.00020712430126394
  70    0.0003170572640008
  71    -0.0023670149619088
  72    0.0066786533487637
  73    -0.0009414612419358
  74    0.00088908328209166
  75    -0.009458206661474
  76    1.2053208381833e-17
  77    0.00053689778745105
  78    -0.00059299476653561
  79    1.4718082093849e-17
  80    -0.00053535040850635
  81    -7.0746971540145e-18
  82    -7.508179923803e-18
  83    -0.0012774749585029
  84    0.00011219524361556
  85    0.0014270792726984
  86    0.0022269685941174
  87    -0.0084943825512712
  88    -0.0012008164486017
  89    0.0013998987206767
  90    0.0021652304258681
  91    -0.0014268610362294
  92    -0.0022267203205884
  93    0.0084907153477682
  94    0.0011987220881481
  95    -0.0013999596404881
  96    -0.0021651966401527
 Sym= A
 Ene=               3
 Spin= Alpha
 Occup=    1.00000
   1       0.7128903322381
   2    -0.0038559821382834
   3    -0.026669952890349
   4    1.3710231883802e-06
   5    -0.00015539305883564
   6    7.1868385877668e-17
   7    4.5802116119252e-07
   8    -0.0011353593397664
   9    3.8869295620735e-17
  10    0.00068905833147434
  11    -1.0439915214736e-17
  12    -5.9816280714984e-17
  13    0.00031760714264761
  14    -8.3881384757146e-08
  15    0.0020222219362513
  16    -0.0060704769602197
  17    0.00042276551707388
  18    0.0088875617341638
  19    -0.0056961989672984
  20    7.5971722294474e-17
  21    0.0012649450369291
  22    -0.00099944695086674
  23    5.9724886339231e-17
  24    0.00055855810394563
  25    -4.1989014300223e-18
  26    3.669022738507e-19
  27    -0.00046074825272531
  28    0.00075038558723787
  29    0.0020227205629543
  30    -0.0060711553656933
  31    0.00042237691012451
  32    0.0088882115388595
  33    0.0056964765932086
  34    3.7511282650054e-17
  35    0.0012649757669236
  36    0.0009997029268761
  37    2.4610950684737e-17
  38    0.00055856704061591
  39    -7.70563774546e-20
  40    3.7859594562112e-18
  41    -0.00046081821853101
  42    -0.00075040873830487
  43      0.71289014042693
  44    -0.0038554678124683
  45    -0.026669641620159
  46    8.9290431219514e-07
  47    0.0001532001146194
  48    -1.4916802056057e-18
  49    2.7918270042057e-07
  50    0.0011340431024828
  51    -9.9886733991299e-18
  52    0.00068901387676761
  53     1.97310779335e-18
  54    8.8416172342731e-19
  55    0.00031744623151171
  56    5.479973158485e-08
  57    0.0020227984647886
  58    -0.0060718912459618
  59    0.00042181380929141
  60    -0.0088892016897511
  61    0.0056971530888079
  62    2.4481332427033e-18
  63    -0.0012653419111314
  64    0.00099999467139792
  65    -5.2061570372641e-18
  66    0.00055859983853697
  67    -1.0719633326932e-19
  68    2.2970009684846e-18
  69    -0.00046081623714543
  70    0.00075042516809713
  71    0.0020227601175336
  72    -0.0060715532063221
  73    0.00042192637220797
  74    -0.0088890834797499
  75    -0.0056971206306051
  76    4.3307525528169e-17
  77    -0.0012655526562736
  78    -0.00099980578440689
  79    2.7077341227496e-17
  80    0.00055859863474693
  81    5.0788933809929e-18
  82    1.636397583986e-18
  83    -0.00046075047418939
  84    -0.00075045290070413
  85    -0.0081897102461042
  86    -0.00059539707305552
  87    0.00042123032929201
  88    0.00077917434655433
  89    0.00042122468743048
  90    0.00077937545935375
  91    -0.008188126826152
  92    -0.00059436653159338
  93    0.00042124546572579
  94    0.00077947784990291
  95    0.00042139258919721
  96    0.00077949996579211
 Sym= A
 Ene=               4
 Spin= Alpha
 Occup=    1.00000
   1    0.0020873907193105
   2    -0.0062352971817394
   3    0.00023067294245684
   4    0.0093134825315168
   5    0.0049713155846173
   6    8.4369486211573e-17
   7    0.0014793196450953
   8    0.00070680688865374
   9    -2.3249359201279e-16
  10    0.00055378550685387
  11    1.3035095841468e-17
  12    3.376759357497e-17
  13    -0.00045734394834489
  14    -0.00077026949125893
  15    0.0018638177086932
  16    -0.0055364273833236
  17    0.00078214675865614
  18    -0.00037054114868753
  19    0.0095494298633372
  20    2.3469325030207e-17
  21    -0.00019071988141566
  22    0.0012355696998302
  23    5.1201471686601e-18
  24    0.00053538375813714
  25    4.5634166676542e-17
  26    -3.1926929642578e-18
  27    0.0008177443089949
  28    -1.9889658159013e-05
  29      0.71270261652043
  30    -0.0032306478911711
  31    -0.026232557475252
  32    -3.8280662464415e-05
  33    0.0010139838341234
  34    4.027648290054e-17
  35    -0.00093864708367763
  36     0.000904616013365
  37    3.2188593695383e-17
  38    0.00066229944134573
  39    3.8649518730219e-19
  40    -5.7280189165884e-18
  41    -0.00021768662765923
  42    0.00027260164848704
  43    0.0020876539932305
  44    -0.0062360743283602
  45    0.00022999727442318
  46    -0.0093142132069796
  47    -0.0049720101859947
  48    4.7818064899683e-17
  49    -0.0014794891210945
  50    -0.00070722512655389
  51    2.5170118362269e-17
  52    0.00055382517373652
  53    4.9978586674993e-18
  54    -2.4445200479418e-18
  55    -0.00045740833133773
  56    -0.00077032969299204
  57    0.0018638086519985
  58    -0.0055363453331393
  59    0.00078227930665001
  60    0.00037052111918277
  61    -0.0095489236110544
  62    -1.6890842953631e-18
  63    0.00019092168987924
  64    -0.0012354169938723
  65    2.2944331714159e-18
  66    0.00053537330605771
  67    3.8814368885608e-18
  68    -4.5034662305328e-18
  69    0.00081766348190521
  70    -1.988951636257e-05
  71      0.71270216203925
  72    -0.0032289123278174
  73    -0.026231268438534
  74    3.8496582863806e-05
  75    -0.0010135446079134
  76    -4.1794040621545e-17
  77    0.00093848683027408
  78    -0.00090435933601571
  79    -4.2048208927107e-17
  80    0.00066221804099977
  81    -2.0715933712486e-18
  82    -4.436956444305e-19
  83    -0.00021763949329386
  84    0.0002725976149514
  85    0.00052343383934922
  86    0.00097563819605065
  87    0.00035858224945073
  88     0.000631064040164
  89    -0.0082158984123523
  90    -0.00073907266896278
  91    0.00052360268244359
  92    0.00097585336733772
  93    0.00035843751818525
  94    0.0006309804240245
  95    -0.0082152123230906
  96    -0.0007388881888155
 Sym= A
 Ene=               5
 Spin= Alpha
 Occup=    1.00000
   1    0.0024446749040092
   2    -0.006936213919909
   3    0.00074231790056657
   4    0.0081799864184148
   5    0.0056958701281205
   6    -8.3040665758905e-17
   7    0.00041551632977387
   8    0.00083593878063933
   9    2.4223414633784e-17
  10    0.00054575983459993
  11    2.8916231450673e-17
  12    -2.9078898856914e-17
  13    -0.0007463112385519
  14    -0.0010582729402654
  15    -0.0023668381855003
  16    0.0066782441668114
  17    -0.00094180781876296
  18    -0.00088903211212016
  19    -0.0094578613973137
  20    -7.3983651369066e-17
  21    -0.00053742025562251
  22    -0.00059279506075351
  23    7.1978744598136e-17
  24    -0.00053536770033461
  25    6.1919691903777e-17
  26    -5.6947290192975e-17
  27    -0.001277495806182
  28    -0.00011231269773557
  29     -0.71334388672965
  30    0.0043351998393297
  31     0.030330948065675
  32    -0.00024959964659998
  33    -0.00026257727264129
  34    3.1888204145681e-18
  35    -0.00055128287043645
  36    0.00018449981870356
  37    9.9953862999649e-18
  38    -0.00075281550739697
  39    1.9092971012458e-19
  40    7.5709420383422e-19
  41    0.00020734919627032
  42    -0.00031736660369369
  43    -0.0024448490649413
  44    0.0069371161635613
  45    -0.00074179812271179
  46    0.0081806284248767
  47    0.0056965706884818
  48    -1.1128923136821e-17
  49    0.0004155139465563
  50    0.00083635310750037
  51    -1.2568595447348e-18
  52    -0.00054580883845678
  53    1.574036651844e-18
  54    -8.6026416934005e-19
  55    0.00074642835046491
  56    0.0010583157448209
  57    0.0023668589858002
  58    -0.0066780997594019
  59    0.00094171467806559
  60    -0.00088869536566458
  61    -0.0094579047891144
  62    -6.1212868028475e-17
  63    -0.00053707986971325
  64    -0.00059294880327127
  65    -4.483374246622e-17
  66    0.00053534065736238
  67    -7.2610754999874e-20
  68    -3.8193192351417e-18
  69    0.0012774724821799
  70    0.00011225516123868
  71      0.71334297170337
  72    -0.0043324283443329
  73    -0.030328636803276
  74    -0.00025087021264924
  75    -0.00026086529721603
  76    -9.854919684109e-17
  77    -0.000552266096463
  78    0.00018541704173299
  79    -7.4324662305119e-17
  80    0.00075265591295789
  81    -2.2787328853683e-18
  82    2.7455752171255e-18
  83    -0.00020721385461731
  84    0.00031723744252806
  85     0.001426858326335
  86    0.0022265607259744
  87    -0.0014001176065383
  88    -0.0021651902414816
  89    0.0084952360112792
  90     0.001201362609507
  91    -0.001427084285616
  92    -0.0022269289633808
  93    0.0013999690719206
  94    0.0021651094459186
  95    -0.0084928867802356
  96    -0.0012000867588875
 Sym= A
 Ene=               6
 Spin= Alpha
 Occup=    1.00000
   1     0.014857984469164
   2    -0.036167068100032
   3    -0.045614931105544
   4    6.0811158990108e-07
   5      0.02749421378093
   6    -3.1692441499686e-17
   7    3.0892440821471e-07
   8     0.028867489929466
   9    -4.1474916327952e-16
  10    -0.0015755183203342
  11    -1.7833269448709e-17
  12    6.6918733324002e-17
  13    -0.010171820374623
  14    -9.4772506393261e-09
  15     -0.04694561227909
  16      0.15313332666223
  17      0.10383087176596
  18      0.01863418674447
  19     -0.25768720175198
  20    2.0553442885723e-16
  21    0.0078399110469373
  22     -0.09363391326718
  23    2.7568953073283e-16
  24    -0.0065641171937474
  25    1.6699158659067e-17
  26    1.344294647524e-16
  27    -0.016051578275471
  28    0.0004629555836919
  29    -0.046944586573593
  30      0.15313317668472
  31      0.10383094231096
  32     0.018634511047907
  33      0.25768728863935
  34    1.9925713232472e-16
  35    0.0078399739467055
  36     0.093634060996194
  37    1.7648726657728e-16
  38    -0.0065641292719085
  39    1.429609667961e-19
  40    -5.2681251485647e-18
  41     -0.01605157258224
  42    -0.00046297842922608
  43     0.014858078736235
  44    -0.036166578182921
  45    -0.045614709876332
  46    2.4849107878297e-08
  47    -0.027494525694658
  48    7.8085195620595e-18
  49    -3.19995413219e-08
  50    -0.028867906921517
  51    1.3297076821062e-17
  52    -0.0015755296949719
  53    1.8640176351267e-17
  54    -2.0435354756783e-18
  55    -0.010171881603401
  56    -2.4418094337588e-08
  57    -0.046947273005991
  58      0.15313324306812
  59      0.10383098173698
  60    -0.018633689480523
  61      0.25768883770717
  62    -2.1495449576693e-16
  63    -0.0078393999938432
  64     0.093634683349174
  65    -1.5516523440246e-16
  66    -0.006564117231566
  67    2.4982356655849e-18
  68    -6.27383580558e-18
  69    -0.016051679872368
  70    0.00046288708899084
  71    -0.046946101351919
  72      0.15313414713975
  73      0.10383159209826
  74     -0.01863521287005
  75     -0.25768835754756
  76    -3.2580142453599e-16
  77    -0.007840490945436
  78    -0.093634263109865
  79    -3.2757819027356e-16
  80    -0.0065641603959156
  81    -1.6391674516255e-17
  82    -3.4520642237241e-18
  83    -0.016051612749016
  84    -0.00046305815611525
  85     0.027419706339309
  86     0.051335158727914
  87    -0.017228787691491
  88    -0.041976707469398
  89    -0.017228584751247
  90     -0.04197647188741
  91     0.027420082222687
  92     0.051335274296232
  93    -0.017229551180707
  94    -0.041977256515617
  95    -0.017228194033225
  96    -0.041976358637171
 Sym= A
 Ene=               7
 Spin= Alpha
 Occup=    1.00000
   1     0.067061298199436
   2     -0.22743059657258
   3     -0.16489959501649
   4       -0.311197037924
   5      0.16736134664854
   6    -5.8354024750838e-16
   7     -0.10757925501757
   8     0.060509757032038
   9    6.9848549322444e-16
  10    0.0095804028093229
  11    3.2658323731804e-17
  12    4.4227343343907e-17
  13    -0.0097799208360703
  14     0.018980666436325
  15     0.068549014328415
  16     -0.23205017960246
  17      -0.1685242795013
  18      0.30060329760912
  19     -0.17990092093763
  20    -3.2709327192476e-16
  21      0.10649670915225
  22     -0.06088731257358
  23    -9.6537345599871e-16
  24    0.0097312286805898
  25    2.8530605070433e-17
  26    -6.9270718544766e-17
  27    -0.011037604855511
  28     0.018005355220215
  29    -0.0083427572906704
  30     0.017635647764597
  31     0.026866785025094
  32    0.0006912484398099
  33     0.027046901312341
  34    3.085233325418e-17
  35    -0.0052365810517318
  36     0.026170621931371
  37    5.402968440987e-18
  38    0.0014548287733762
  39    -1.4716918556867e-17
  40    1.2495820377032e-16
  41    0.0022085454483523
  42    0.0089182347640636
  43    -0.0031614578102492
  44    0.0056621580439269
  45     0.015202940414607
  46     0.010378335996159
  47     0.010677268160966
  48    7.1582083169017e-17
  49     0.009547266038074
  50    0.0066245074635813
  51    2.1944046618496e-16
  52    0.00017197975883822
  53    -4.0931617227219e-18
  54    4.0445646540562e-17
  55    -0.00040984118159657
  56    0.00057490622626446
  57    -0.0027822319398568
  58    0.0045367450592412
  59     0.014252616121318
  60     0.004250273509009
  61     0.012542148550267
  62    -8.6006527149495e-17
  63    0.0009385309401347
  64     0.010603094972683
  65    -1.5644671488053e-16
  66    0.00018033328914971
  67    -5.9497254861415e-17
  68    -5.1857234637893e-17
  69    -0.00020782738669342
  70    0.00080789088171892
  71    -0.0093211201798093
  72     0.020933130153004
  73     0.029431482356084
  74     0.028621459351876
  75     0.018702069182791
  76    -1.9463408658245e-17
  77     0.027348931493023
  78     0.010169011559154
  79    5.1891618671688e-17
  80    0.0013193863606893
  81    -1.0262081375021e-17
  82    -8.2848203797548e-17
  83    -0.0085417776457389
  84    0.0028714485013151
  85     0.021919859855887
  86     0.055474863726411
  87     0.022466053928102
  88     0.057062394377587
  89    -0.017852689880538
  90    -0.033580848106922
  91    -0.0023341178920182
  92    -3.8580160315216e-05
  93    -0.0019066807863751
  94    0.00088041473410596
  95    -0.018197364454565
  96    -0.034359307542535
 Sym= A
 Ene=               8
 Spin= Alpha
 Occup=    1.00000
   1    8.558796509199e-08
   2    -4.6672082471402e-07
   3    -3.3117015268923e-07
   4     0.047311580248351
   5    5.9285335050823e-07
   6    4.1029641198979e-17
   7     0.032712546045465
   8    3.0881933272074e-07
   9    2.2983789813426e-16
  10    2.7149962837332e-08
  11    -1.171256041787e-16
  12    -1.1052291108908e-16
  13    -4.2136714091976e-08
  14    0.0082685830742828
  15     0.049643674939332
  16     -0.16073704476391
  17     -0.12410969799433
  18    0.0023419796484661
  19      0.25197909811978
  20    -1.0524266547477e-15
  21    0.0064590955086004
  22     0.086153936531254
  23    -9.7603151980067e-16
  24     0.006404586800625
  25    -6.7681648912559e-18
  26    1.2261048692756e-16
  27     0.014625945738003
  28    -0.00068062060689278
  29     0.049643947989645
  30     -0.16073514206239
  31     -0.12410824565493
  32    0.0023412788698723
  33     -0.25198024457513
  34    -9.7523763701567e-16
  35    0.0064591165075263
  36    -0.086154380649691
  37    -7.9940615690655e-16
  38     0.006404516554713
  39    -2.7921862218077e-18
  40    -2.2451635819417e-16
  41     0.014626046329013
  42    0.00068066860808407
  43    -9.4216828061948e-08
  44    4.3378570818115e-07
  45    4.4474503121617e-07
  46     0.047313256267302
  47    1.8387991194899e-07
  48    -7.8834914614644e-17
  49     0.032713063434454
  50    1.2200024417965e-07
  51    1.7265858956652e-17
  52    -1.5151293254338e-08