[Molden Format]
made by pyscf v[1.6.4]
[Atoms] (AU)
C   1   6     8.83219251236156    11.86927152263468     0.00000000000000
C   2   6    11.15163290902210    10.53014167090126     0.00000000000000
C   3   6    11.15163290902210     7.85188196743444     0.00000000000000
C   4   6     8.83219251236156     6.51275211570103     0.00000000000000
C   5   6     6.51275211570103     7.85188196743444     0.00000000000000
C   6   6     6.51275211570103    10.53014167090126     0.00000000000000
H   7   1     8.83219251236156    13.94029797159051     0.00000000000000
H   8   1    12.94519276083417    11.56565489537918     0.00000000000000
H   9   1    12.94519276083417     6.81637063268265     0.00000000000000
H   10   1     8.83219251236156     4.44172755647132     0.00000000000000
H   11   1     4.71919226388896     6.81637063268265     0.00000000000000
H   12   1     4.71919226388896    11.56565489537918     0.00000000000000
[GTO]
1 0
 s    6 1.00
             3047.5249  0.0018347001629433
             457.36951    0.01403730124668
             103.94869   0.068842606114048
             29.210155    0.23218442062076
              9.286663    0.46794134155879
              3.163927    0.36231203217765
 s    3 1.00
             7.8682724   -0.11933240861517
             1.8812885   -0.16085421161283
             0.5442493     1.1434564825515
 s    1 1.00
             0.1687144                   1
 p    3 1.00
             7.8682724   0.068999095584993
             1.8812885    0.31642397975315
             0.5442493    0.74430825237435
 p    1 1.00
             0.1687144                   1
 d    1 1.00
                   0.8                   1

2 0
 s    6 1.00
             3047.5249  0.0018347001629433
             457.36951    0.01403730124668
             103.94869   0.068842606114048
             29.210155    0.23218442062076
              9.286663    0.46794134155879
              3.163927    0.36231203217765
 s    3 1.00
             7.8682724   -0.11933240861517
             1.8812885   -0.16085421161283
             0.5442493     1.1434564825515
 s    1 1.00
             0.1687144                   1
 p    3 1.00
             7.8682724   0.068999095584993
             1.8812885    0.31642397975315
             0.5442493    0.74430825237435
 p    1 1.00
             0.1687144                   1
 d    1 1.00
                   0.8                   1

3 0
 s    6 1.00
             3047.5249  0.0018347001629433
             457.36951    0.01403730124668
             103.94869   0.068842606114048
             29.210155    0.23218442062076
              9.286663    0.46794134155879
              3.163927    0.36231203217765
 s    3 1.00
             7.8682724   -0.11933240861517
             1.8812885   -0.16085421161283
             0.5442493     1.1434564825515
 s    1 1.00
             0.1687144                   1
 p    3 1.00
             7.8682724   0.068999095584993
             1.8812885    0.31642397975315
             0.5442493    0.74430825237435
 p    1 1.00
             0.1687144                   1
 d    1 1.00
                   0.8                   1

4 0
 s    6 1.00
             3047.5249  0.0018347001629433
             457.36951    0.01403730124668
             103.94869   0.068842606114048
             29.210155    0.23218442062076
              9.286663    0.46794134155879
              3.163927    0.36231203217765
 s    3 1.00
             7.8682724   -0.11933240861517
             1.8812885   -0.16085421161283
             0.5442493     1.1434564825515
 s    1 1.00
             0.1687144                   1
 p    3 1.00
             7.8682724   0.068999095584993
             1.8812885    0.31642397975315
             0.5442493    0.74430825237435
 p    1 1.00
             0.1687144                   1
 d    1 1.00
                   0.8                   1

5 0
 s    6 1.00
             3047.5249  0.0018347001629433
             457.36951    0.01403730124668
             103.94869   0.068842606114048
             29.210155    0.23218442062076
              9.286663    0.46794134155879
              3.163927    0.36231203217765
 s    3 1.00
             7.8682724   -0.11933240861517
             1.8812885   -0.16085421161283
             0.5442493     1.1434564825515
 s    1 1.00
             0.1687144                   1
 p    3 1.00
             7.8682724   0.068999095584993
             1.8812885    0.31642397975315
             0.5442493    0.74430825237435
 p    1 1.00
             0.1687144                   1
 d    1 1.00
                   0.8                   1

6 0
 s    6 1.00
             3047.5249  0.0018347001629433
             457.36951    0.01403730124668
             103.94869   0.068842606114048
             29.210155    0.23218442062076
              9.286663    0.46794134155879
              3.163927    0.36231203217765
 s    3 1.00
             7.8682724   -0.11933240861517
             1.8812885   -0.16085421161283
             0.5442493     1.1434564825515
 s    1 1.00
             0.1687144                   1
 p    3 1.00
             7.8682724   0.068999095584993
             1.8812885    0.31642397975315
             0.5442493    0.74430825237435
 p    1 1.00
             0.1687144                   1
 d    1 1.00
                   0.8                   1

7 0
 s    3 1.00
             18.731137    0.03349459952309
             2.8253937    0.23472694665786
             0.6401217    0.81375731841339
 s    1 1.00
             0.1612778                   1

8 0
 s    3 1.00
             18.731137    0.03349459952309
             2.8253937    0.23472694665786
             0.6401217    0.81375731841339
 s    1 1.00
             0.1612778                   1

9 0
 s    3 1.00
             18.731137    0.03349459952309
             2.8253937    0.23472694665786
             0.6401217    0.81375731841339
 s    1 1.00
             0.1612778                   1

10 0
 s    3 1.00
             18.731137    0.03349459952309
             2.8253937    0.23472694665786
             0.6401217    0.81375731841339
 s    1 1.00
             0.1612778                   1

11 0
 s    3 1.00
             18.731137    0.03349459952309
             2.8253937    0.23472694665786
             0.6401217    0.81375731841339
 s    1 1.00
             0.1612778                   1

12 0
 s    3 1.00
             18.731137    0.03349459952309
             2.8253937    0.23472694665786
             0.6401217    0.81375731841339
 s    1 1.00
             0.1612778                   1

[5d]
[7f]
[9g]

[MO]
 Sym= A
 Ene=               0
 Spin= Alpha
 Occup=    1.00000
   1    -0.00018722771345897
   2    0.00027294672880184
   3    -0.00058249418667217
   4    0.00084430902353471
   5    -0.00056753637192521
   6    1.0778263262816e-16
   7    0.00075377570664642
   8    -0.00012799080110129
   9    -1.8979782538179e-16
  10    2.2307761847018e-05
  11    -1.0368282754069e-17
  12    4.5980409368307e-17
  13    0.00022198998433938
  14    0.00019391928229132
  15    0.0030384268507411
  16    -0.0087602986100384
  17    0.0011226602668283
  18    0.00035847011641695
  19     0.013474688582364
  20    7.0355757610951e-17
  21    0.00013004490994129
  22    0.0013746137830685
  23    -4.4109673109164e-17
  24    0.00075382581618137
  25    -1.1411767583571e-17
  26    3.6999570693759e-17
  27    0.0014616784526387
  28    6.9821012718354e-05
  29       1.0079611710679
  30    -0.004040925679599
  31    -0.038949015948185
  32    4.7980611577019e-05
  33    -2.2578791952966e-05
  34    2.9051285449054e-17
  35    -0.00012494975717398
  36     7.40055761891e-05
  37    2.0272776893554e-17
  38    0.00093439155708251
  39    4.2598308536017e-19
  40    -4.1446849575462e-18
  41    -0.00023493941500192
  42    0.00040634838920536
  43    0.0030390201436539
  44    -0.0087631323527802
  45     0.001120554308485
  46    -0.011494716262027
  47    -0.0070522980989933
  48    3.1672314861355e-17
  49    -0.0011271580539101
  50    -0.00080204374258514
  51    1.2685961920955e-17
  52    0.00075387985089821
  53    3.1737885275875e-18
  54    -1.572353203489e-18
  55    -0.0007916720737107
  56    -0.0012310953999646
  57    -0.00018537048227549
  58    0.00027347445475238
  59    -0.00058214111001012
  60    0.00091281702268351
  61    -0.00044754152860931
  62    1.906799299263e-17
  63    0.00048753323706606
  64    -0.00058877508119585
  65    1.5510796556386e-17
  66    2.2292674484776e-05
  67    2.1724918202709e-18
  68    -1.3374563368521e-18
  69    -0.00027910015779823
  70    -9.5302140577864e-05
  71    -0.00031512985197604
  72    0.00032445468314077
  73    0.0026044617667545
  74    9.277015287923e-05
  75    -5.4032121950652e-05
  76    1.6208154482069e-17
  77    0.0010210259604058
  78    -0.00058975625174759
  79    4.2179470853992e-18
  80    -4.360108554063e-05
  81    -4.3918458173982e-19
  82    -1.2863363299067e-18
  83    2.379825852122e-05
  84    -4.1226801574386e-05
  85    -0.00079556205670383
  86    -0.0010141184421549
  87    0.0012176762268149
  88    0.0020292900449845
  89    -0.011077878411821
  90    -0.0010595210999929
  91    0.0012197422635989
  92    0.0020315844588873
  93    -0.00079522686596969
  94    -0.0010142597390195
  95    0.00024533120052326
  96    0.00043969384873861
 Sym= A
 Ene=               1
 Spin= Alpha
 Occup=    1.00000
   1    -0.00031673469132568
   2    0.00032532004194986
   3    0.0026049368351271
   4    -8.3002230984856e-09
   5    -0.00010548456768752
   6    -6.2413518045205e-17
   7    3.112539098953e-08
   8    -0.001178037108512
   9    -3.7208294747944e-17
  10    -4.3675971410071e-05
  11    -1.7024966613497e-18
  12    -1.4536251804533e-18
  13    -4.7703290478992e-05
  14    6.9356308722998e-09
  15    -0.0001825681715197
  16    0.00027335837576836
  17    -0.00058227311492325
  18    -6.8576184905469e-05
  19    -0.0010141283649606
  20    -1.2356782920559e-17
  21    0.00026624774886397
  22    -0.00071651059100418
  23    -7.5933806101304e-18
  24    2.2261111912106e-05
  25    9.786501849845e-19
  26    -5.5839209472158e-19
  27    5.695170501688e-05
  28    -0.00028921619242687
  29    0.0030393492934828
  30    -0.0087610969774986
  31      0.00112187342813
  32     0.011849984416291
  33    0.0064274657895595
  34    1.0786906620503e-17
  35    0.0012563549513521
  36    0.00057448450896817
  37    1.278858965983e-17
  38    0.00075385530771534
  39    -1.1908491403816e-20
  40    -6.9117420279755e-19
  41    -0.00067021478936262
  42    -0.0013009253550776
  43       1.0079615496429
  44    -0.0040420833159198
  45    -0.038950119379458
  46    8.083368983939e-08
  47    -4.7189536631601e-05
  48    5.6222785489914e-18
  49     3.95667929872e-08
  50    0.00014819750665271
  51    7.0143930799014e-18
  52    0.00093450941991817
  53    1.9405805915547e-18
  54    -4.4974247699591e-19
  55    0.00046975154081883
  56    -5.034972197799e-10
  57    0.0030391625023532
  58     -0.00876087669227
  59    0.0011220256728888
  60     -0.01185013332895
  61    0.0064277887518406
  62    -2.0829678327403e-17
  63    -0.0012563919325284
  64    0.00057457278353757
  65    -1.4303295715385e-17
  66    0.00075384148472255
  67    -1.7902721773831e-19
  68    -2.065992029747e-18
  69    -0.00067023560554959
  70    0.0013009286679627
  71    -0.00018533291134767
  72    0.00027377064250751
  73    -0.00058184354025296
  74    6.8320187589271e-05
  75    -0.0010142865789047
  76    -4.4636382762595e-17
  77    -0.00026638074777541
  78    -0.00071653368212212
  79    -3.7492240045517e-17
  80    2.2236914400513e-05
  81    8.7455106292416e-20
  82    3.8994678376212e-19
  83    5.6946244408473e-05
  84    0.00028919914711305
  85    0.00024680838046361
  86    0.00044058125576114
  87    -0.00079487810648563
  88    -0.0010136661968803
  89    0.0012182387290868
  90     0.002030018335846
  91    -0.011081887296947
  92    -0.0010622262158231
  93    0.0012182957557531
  94    0.0020300280723362
  95    -0.00079460992767084
  96    -0.001013555746077
 Sym= A
 Ene=               2
 Spin= Alpha
 Occup=    1.00000
   1    0.0030367245551618
   2    -0.0087613938234182
   3    0.0011219236456892
   4    -0.011492467627573
   5    0.0070502115358847
   6    -1.2661205702092e-16
   7    -0.0011260761701206
   8    0.00080109928535795
   9    5.5503774370299e-17
  10    0.00075385704598265
  11    -2.9217153875622e-17
  12    1.0158153383854e-16
  13    -0.00079146079302755
  14    0.0012310397104505
  15       1.0079620803507
  16    -0.0040438413326775
  17    -0.038951225752633
  18    4.4203559397836e-05
  19    2.8110541377925e-05
  20    -9.9028927985524e-17
  21    -0.00012665293839184
  22    -7.2203934602587e-05
  23    -1.5841151636231e-16
  24    0.00093453656490279
  25    -6.7496526583614e-17
  26    3.928501679147e-17
  27    -0.00023461598402885
  28    -0.0004065776632018
  29    0.0030396116958493
  30    -0.0087630415794233
  31    0.0011205618061897
  32    0.00035786307224748
  33    -0.013480357230676
  34    -6.8225831927951e-17
  35    0.00013017242535795
  36    -0.0013768137131861
  37    -4.8235860657559e-17
  38    0.0007539375166682
  39    -1.0771300268345e-18
  40    -3.3416754851422e-18
  41    0.0014620224359129
  42    -6.9910548432759e-05
  43    -0.00018676566438049
  44    0.00027345125445704
  45    -0.00058200618441601
  46    0.00084484760976116
  47    0.00056851592396077
  48    -1.7317952533349e-18
  49    0.00075409135234103
  50    0.0001288046189351
  51    1.5310922752519e-17
  52    2.2314248674472e-05
  53    -5.9692734866099e-18
  54    1.137675038272e-18
  55    0.00022220006647395
  56    -0.00019396509253643
  57    -0.00031542581614375
  58    0.00032506642771152
  59    0.0026049420073875
  60    9.2047627721478e-05
  61    5.244989407845e-05
  62    4.0037526208706e-17
  63    0.0010205974937074
  64    0.00058884705944017
  65    3.9075423090304e-17
  66    -4.3651413259422e-05
  67    -1.9964310539795e-18
  68    8.2387440757988e-19
  69    2.3916752615684e-05
  70    4.1289098268156e-05
  71    -0.00018500538241752
  72    0.00027381494179172
  73    -0.0005816917657738
  74    0.0009121556077431
  75    0.00044880806503796
  76    1.0095171101961e-17
  77    0.00048720315533534
  78    0.00058939866901218
  79    1.574755308535e-17
  80    2.223966793535e-05
  81    -4.18960080262e-18
  82    -3.8143860350103e-18
  83    -0.00027893862142713
  84    9.5242281700169e-05
  85    0.0012188144911015
  86    0.0020302572769944
  87    -0.011079235881929
  88    -0.0010599530872518
  89    0.0012183337853336
  90    0.0020303733862573
  91    -0.00079633780822305
  92    -0.0010150484584255
  93    0.00024650566871939
  94    0.0004404929183908
  95    -0.00079416998346737
  96    -0.0010133110227343
 Sym= A
 Ene=               3
 Spin= Alpha
 Occup=    1.00000
   1       1.0079620436083
   2    -0.0040437398021293
   3    -0.038951092451356
   4    -9.0253807402899e-07
   5    5.2401059831693e-05
   6    1.5944079344111e-16
   7    -2.8151551488916e-07
   8    -0.00014577089145934
   9    9.3884877749031e-17
  10    0.00093453609256343
  11    -1.3696237863777e-17
  12    -8.2268356939927e-17
  13    0.00046941298759983
  14    3.898033020404e-08
  15    0.0030415952673711
  16    -0.0087628447547464
  17    0.0011206509629442
  18     0.011852583982884
  19    -0.0064294220576704
  20    1.0601507682489e-16
  21    0.0012570809757874
  22    -0.00057539253479238
  23    8.4451813191157e-17
  24    0.00075393334423757
  25    -6.6265395932947e-18
  26    2.5568617907293e-18
  27    -0.0006704385141161
  28    0.0013010247441004
  29    -0.0001819944042188
  30    0.00027344341135533
  31    -0.0005820950766815
  32    -6.89034695657e-05
  33    0.0010153126104089
  34    9.5673100663061e-18
  35    0.00026605249490244
  36    0.00071718130255134
  37    -1.7920572268262e-18
  38    2.2297490064099e-05
  39    1.7601921190004e-18
  40    6.1895935073812e-18
  41    5.693156904733e-05
  42    0.00028932229001538
  43    -0.00031520117439662
  44    0.00032518864417816
  45    0.0026051127368871
  46    -1.625666992739e-07
  47    0.00010586573527815
  48    -4.9205857508657e-17
  49    -5.3620116636645e-08
  50    0.0011782461375094
  51    -5.2515048284923e-17
  52    -4.3650721970524e-05
  53    8.0531198392758e-19
  54    -1.0200851928979e-19
  55    -4.7723882568684e-05
  56    7.4792271973403e-09
  57    -0.00018119684902865
  58    0.00027335107031669
  59    -0.00058222047846995
  60    6.875235167345e-05
  61    0.0010144816355272
  62    -7.5284877644234e-18
  63    -0.00026612076407167
  64    0.00071681598865057
  65    -1.6101755284229e-17
  66    2.2286678320887e-05
  67    -1.8424177878958e-18
  68    5.4961565022703e-18
  69    5.6962589303218e-05
  70    -0.00028930461928019
  71    0.0030389713643045
  72    -0.0087620739307359
  73    0.0011213812233633
  74    -0.011852345861942
  75    -0.0064279613644688
  76    9.2902416240429e-17
  77    -0.0012570781569854
  78    -0.000574805112756
  79    6.9175661629533e-17
  80    0.00075388978794434
  81    6.7180744906674e-18
  82    3.3598613275497e-18
  83    -0.00067037142052132
  84    -0.0013010119768101
  85    -0.011079168864674
  86    -0.0010599551797213
  87    0.0012181911710322
  88    0.0020301836174904
  89    -0.00079555464748313
  90    -0.0010143587186599
  91    0.00024658456025288
  92    0.00044050607160189
  93    -0.00079523335803433
  94    -0.0010140578516674
  95    0.0012187938244008
  96    0.0020304434699837
 Sym= A
 Ene=               4
 Spin= Alpha
 Occup=    1.00000
   1    -0.00018800651174985
   2    0.00027293414124215
   3    -0.00058201546692239
   4    -0.00084478675435283
   5    -0.00056627886467234
   6    3.8730700771823e-17
   7    -0.00075394958108402
   8    -0.00012792440854813
   9    -3.6644023593913e-17
  10    2.2286718874879e-05
  11    2.106987789616e-17
  12    -3.1635830515567e-17
  13    0.00022203424252505
  14    -0.00019395644699465
  15    -0.00031631185371548
  16    0.00032473236203191
  17    0.0026043819727544
  18    -9.1455949254921e-05
  19    -5.3502734856401e-05
  20    8.7067318090329e-18
  21    -0.0010202091569198
  22    -0.00058927085414341
  23    1.0629733801908e-16
  24    -4.3626823265287e-05
  25    8.5789586349133e-18
  26    -3.6816628170666e-17
  27    2.3810422400246e-05
  28    4.1331688297529e-05
  29    -0.00018399681125035
  30    0.00027334664399024
  31    -0.00058187737972726
  32    -0.00091346104394631
  33    -0.00044744755468027
  34    -1.6887268110944e-18
  35    -0.00048805017446837
  36    -0.00058853383757012
  37    6.8115411748867e-19
  38    2.2281241499141e-05
  39    8.3094823469734e-19
  40    7.2865967116291e-18
  41    -0.00027900553587445
  42    9.5365182638032e-05
  43     0.003038561428085
  44    -0.0087614953927718
  45    0.0011217067268775
  46     0.011493094620425
  47    -0.0070500505631692
  48    -5.6861448969129e-17
  49    0.0011260962911443
  50    -0.00080162532529017
  51    -4.0348375616783e-17
  52    0.00075389552324774
  53    -8.6415954913861e-19
  54    1.0905321125392e-18
  55    -0.00079163641019953
  56    0.0012310700216729
  57       1.0079629974645
  58    -0.0040467263746252
  59    -0.038953521049558
  60    -4.1220671357205e-05
  61    -2.4920471128025e-05
  62    -4.9050735932181e-17
  63    0.00012871341128768
  64    7.3946128357822e-05
  65    -5.0047421048659e-17
  66    0.00093471560608784
  67    -3.5019925488462e-18
  68    2.8531184857852e-18
  69    -0.00023482504954162
  70    -0.00040686771921458
  71    0.0030403907017126
  72    -0.0087623009368072
  73    0.0011209959688112
  74    -0.00035937451587882
  75     0.013479627173778
  76    -2.3318544230708e-18
  77    -0.00013135928514014
  78     0.001376536393391
  79    9.3108735129181e-19
  80    0.00075391842457301
  81    4.5220747621554e-18
  82    4.7358973243847e-18
  83     0.001461990398526
  84    -7.0079737395011e-05
  85    -0.00079498607168235
  86    -0.0010137649778635
  87    0.00024632009913986
  88    0.0004402960099338
  89    -0.00079552854425958
  90    -0.0010141841963743
  91     0.001218936304256
  92    0.0020304197374188
  93     -0.01108306590871
  94    -0.0010622387174966
  95    0.0012192466739398
  96     0.002030808152882
 Sym= A
 Ene=               5
 Spin= Alpha
 Occup=    1.00000
   1    0.0030400479640325
   2    -0.0087642980919365
   3    0.0011203090184637
   4     0.011493963060288
   5     0.007051416636853
   6    -8.1950251050826e-18
   7    0.0011274692537566
   8    0.0007998613659272
   9    -1.474321225328e-16
  10    0.00075390685573013
  11    3.0609308395889e-17
  12    3.9099594390921e-18
  13    -0.00079116309532505
  14    -0.0012311921478375
  15    -0.00018457882873822
  16    0.00027366378153964
  17    -0.00058254685856308
  18    -0.0009125069456283
  19    0.00044820806607924
  20    -3.6929889677883e-17
  21    -0.00048699953117236
  22    0.0005896655279234
  23    5.0788282458512e-17
  24    2.2334051375378e-05
  25    7.6421001917004e-17
  26    -4.3229994883928e-17
  27    -0.0002790826464979
  28    -9.5242780724467e-05
  29    -0.00031632149776525
  30    0.00032415908218641
  31    0.0026055027750819
  32    -9.2704814153174e-05
  33    5.3521186755256e-05
  34    3.0731704817266e-17
  35    -0.0010216503558823
  36    0.00058994655506568
  37    3.0748304838189e-17
  38    -4.3605003994916e-05
  39    5.9545987872081e-19
  40    -3.0745224293086e-18
  41    2.380885888415e-05
  42    -4.1194305354796e-05
  43    -0.00018456739053296
  44    0.00027475681904328
  45    -0.00058161556220988
  46    -0.00084504339788271
  47    0.00056608157646114
  48    2.2090852365834e-17
  49    -0.00075445413344508
  50    0.00012670595119544
  51    1.5190081915606e-17
  52    2.2287012816491e-05
  53    4.9598564810157e-18
  54    -2.2920333392658e-18
  55    0.00022197842035012
  56    0.00019403393223719
  57    0.0030388273730654
  58    -0.0087647408506852
  59    0.0011198820802524
  60    -0.00035808152192365
  61    -0.013479825897252
  62    -5.2379338820776e-17
  63    -0.00012817426956255
  64    -0.0013761601714653
  65    -3.6323372346716e-17
  66    0.00075393976955368
  67    2.2996363320598e-18
  68    -6.2575092671551e-18
  69    0.0014618146220096
  70    6.9445861576225e-05
  71       1.0079595705438
  72    -0.0040360445342914
  73    -0.038944850516924
  74    -5.7323594205702e-05
  75    3.3369800528273e-05
  76    -1.0791250573922e-16
  77    0.00011890909993613
  78    -6.8619511772358e-05
  79    -8.8432370740085e-17
  80    0.00093405145195945
  81    -3.2265053194367e-18
  82    1.7690012280628e-18
  83    -0.00023417019075791
  84    0.00040558619682041
  85    0.0012180351032756
  86    0.0020303674710856
  87    -0.0007948679236125
  88    -0.0010143702069081
  89    0.00024544721710621
  90    0.00044005295488138
  91    -0.00079437058381829
  92    -0.001014183998919
  93    0.0012169636026209
  94     0.002029647929605
  95    -0.011067354410226
  96    -0.0010528533374278
 Sym= A
 Ene=               6
 Spin= Alpha
 Occup=    1.00000
   1      0.00977359147115
   2    -0.021547562037069
   3    -0.029707151337672
   4    -0.029289991995758
   5     0.015834066677958
   6    -5.9335521187531e-17
   7    -0.021988174588748
   8     0.018689558319498
   9    -4.6103136395549e-16
  10    -0.0012905119615455
  11    -2.0895248555499e-17
  12    1.3134636712914e-16
  13    -0.0067953253221627
  14    -0.0060375983879977
  15    -0.070347199498003
  16      0.22813269281892
  17      0.16580563742361
  18     0.010842141814946
  19     -0.35364805842983
  20    -3.1720621688324e-16
  21    0.0013539652041073
  22     -0.12382267219745
  23    -1.1890061553929e-16
  24    -0.0095721106317919
  25    2.2439670701773e-17
  26    6.8979454578847e-17
  27    -0.021319452387195
  28    0.00087275717672773
  29     -0.07036114530606
  30       0.2281307220829
  31      0.16580464971569
  32     0.010844180774284
  33      0.35364890081222
  34    -4.8443001573648e-16
  35    0.0013546675087534
  36      0.12382290067431
  37    -4.1895574776927e-16
  38    -0.0095720543738259
  39    1.8819380971559e-17
  40    9.8661608205927e-17
  41    -0.021319557005067
  42    -0.00087293037251573
  43    0.0097750836312515
  44    -0.021549026154176
  45    -0.029708417087174
  46    -0.029291603641137
  47    -0.015836258438735
  48    -1.8006777338206e-16
  49    -0.021988674372679
  50    -0.018690429000451
  51    -1.8469266595821e-16
  52    -0.0012904775452764
  53    1.8742539104289e-17
  54    5.6817807652487e-17
  55    -0.006795415638255
  56    0.0060375029632672
  57    0.0034799199479712
  58    -0.0052003691636863
  59    -0.014579221773615
  60    -0.013860919255768
  61    0.0034650170401722
  62    1.2946549682668e-16
  63    -0.0099770158167672
  64     0.004897700840513
  65    1.1079206293854e-16
  66    -0.00014411661502936
  67    -1.0820657614417e-17
  68    2.5050194908196e-17
  69    -0.00084939186528901
  70    -0.00015216933595989
  71    0.0034810731057896
  72    -0.0052009928130668
  73    -0.014579895465101
  74    -0.013859540477208
  75    -0.0034656291868218
  76    1.3135103887997e-16
  77    -0.0099762994826826
  78    -0.0048980740404617
  79    1.8011176645475e-16
  80    -0.00014408169560104
  81    3.1304534508392e-17
  82    -1.0879910433042e-17
  83    -0.0008493653525647
  84    0.00015229197834829
  85     0.018262299566821
  86      0.03457487232256
  87    -0.022016637108304
  88    -0.056052777321759
  89    -0.022016238986747
  90    -0.056052234226101
  91     0.018263055654592
  92     0.034575670276784
  93    0.0019055873690388
  94    -0.00071492856460354
  95    0.0019044460435076
  96    -0.00071554241536212
 Sym= A
 Ene=               7
 Spin= Alpha
 Occup=    1.00000
   1    0.0034806805141773
   2    -0.0052012801189219
   3    -0.014579427656154
   4    -0.0099314209320741
   5     0.010270925958095
   6    -4.5636440861401e-15
   7    -0.0092302604119676
   8    0.0061908011589432
   9    -5.0078128551096e-15
  10    -0.00014409923123397
  11    3.4385933945166e-16
  12    1.1019585837473e-16
  13    0.00055651072775218
  14    0.00065941070799422
  15    0.0097721751828638
  16    -0.021545803962434
  17    -0.029706114172143
  18    -0.00093064751188584
  19     0.033281556395874
  20    5.7878947067742e-15
  21    0.0051927499533479
  22     0.028386697002429
  23    3.6300571839807e-15
  24    -0.0012905726878428
  25    7.0845574812342e-18
  26    -1.0079665182193e-15
  27    -0.0018311020825859
  28    0.0089038040437219
  29    -0.070347526242524
  30      0.22813226363907
  31      0.16580546255488
  32     -0.30084723693271
  33     -0.18621135492868
  34    1.6543593485675e-14
  35     -0.10655741655484
  36    -0.063082156450969
  37    1.3267508759612e-14
  38    -0.0095721256229626
  39    -8.7890595180234e-16
  40    -8.1678614338374e-17
  41     0.011415268375006
  42     0.018027050851379
  43     -0.07035876264043
  44      0.22813567541353
  45      0.16580839281794
  46      0.31169039329549
  47      0.16742584888524
  48    1.6371968904998e-14
  49      0.10791086573728
  50     0.060733567634721
  51    1.3058052197297e-14
  52    -0.0095723491567735
  53    2.3364390334012e-16
  54    5.9959745048721e-16
  55    0.0099031727575326
  56     0.018899740453735
  57    0.0097746893570359
  58     -0.02154972998611
  59    -0.029708599488509
  60    -0.028360107456603
  61     0.017449148621988
  62    5.548817157305e-15
  63    -0.027179984407723
  64    0.0096985189914871
  65    3.7172897488266e-15
  66    -0.0012904836231617
  67    7.6716307794632e-16
  68    -4.3005488686279e-16
  69    0.0086262041826286
  70    0.0028660405434206
  71    0.0034804259258832
  72    -0.0052005249979923
  73    -0.014579863531989
  74    -0.0039299346939222
  75       0.0137362630835
  76    -4.923892906685e-15
  77    -0.00074746405640944
  78      0.01108915210772
  79    -5.451890564436e-15
  80    -0.00014407852314178
  81    -2.9548874008455e-16
  82    -2.7753796530067e-16
  83    0.00029289799382626
  84    0.00081169910833459
  85    0.0019050654004842
  86    -0.00071485366688275
  87     0.018263309515445
  88     0.034575018726148
  89     -0.02201791092116
  90    -0.056053632276113
  91    -0.022009684864236
  92    -0.056048274245774
  93      0.01826232356987
  94     0.034575275523294
  95    0.0019054781860558
  96    -0.00071527180739767
 Sym= A
 Ene=               8
 Spin= Alpha
 Occup=    1.00000
   1    0.0097754881401443
   2    -0.021549291254574
   3    -0.029708189340482
   4     0.029291330328547
   5     0.015836204441678
   6    1.4115029629432e-15
   7     0.021988715997561
   8     0.018690026131271
   9    8.2797923921197e-16
  10    -0.0012904742476184
  11    -2.7011573121382e-16
  12    -1.0798218662672e-16
  13    -0.0067953733628155
  14    0.0060375396447802
  15    0.0034811382357987
  16    -0.005200679813146
  17      -0.0145798172999
  18      0.01386137396814
  19    -0.0034646143384935
  20    -1.3743601560825e-15
  21    0.0099773768976503
  22    -0.0048974499955183
  23    -1.4837863768308e-15
  24    -0.00014409322242051
  25    -4.8170729103738e-17
  26    2.3913089484279e-16
  27    -0.00084935794254401
  28    -0.00015217188958267
  29     0.003480198828716
  30    -0.0052016833359141
  31    -0.014580001050608
  32     0.013860570254461
  33    0.0034652954319947
  34    -1.1990206425824e-15
  35    0.0099764895725652
  36    0.0048982278588632
  37    -1.3018193958803e-15
  38    -0.00014407793096817
  39    -6.8666626810956e-17
  40    -2.3160659019337e-16
  41    -0.00084936180244526
  42    0.00015228050516531
  43    0.0097734197819963
  44    -0.021546801155733
  45    -0.029706658239555
  46     0.029289552937136
  47    -0.015836076431435
  48    1.6340198474698e-15
  49     0.021987823842476
  50    -0.018690992473143
  51    1.1740695973432e-15