[Molden Format]
made by pyscf v[1.6.4]
[Atoms] (AU)
O   1   8     0.00000000000000     0.00000000000000     0.00000000000000
H   2   1     0.00000000000000     1.88972612456506     0.00000000000000
H   3   1     0.00000000000000     0.00000000000000     1.88972612456506
[GTO]
1 0
 s    6 1.00
             5484.6717   0.001831099805527
             825.23495   0.013950098518422
             188.04696    0.06844509273075
               52.9645    0.23271427528445
              16.89757    0.47019295006289
             5.7996353    0.35852086192309
 s    3 1.00
             15.539616   -0.11077750382508
             3.5999336   -0.14802630511126
             1.0137618     1.1307670390447
 s    1 1.00
             0.2700058                   1
 p    3 1.00
             15.539616   0.070874299543311
             3.5999336    0.33975279781076
             1.0137618    0.72715859531445
 p    1 1.00
             0.2700058                   1
 d    1 1.00
                   0.8                   1

2 0
 s    3 1.00
             18.731137    0.03349459952309
             2.8253937    0.23472694665786
             0.6401217    0.81375731841339
 s    1 1.00
             0.1612778                   1

3 0
 s    3 1.00
             18.731137    0.03349459952309
             2.8253937    0.23472694665786
             0.6401217    0.81375731841339
 s    1 1.00
             0.1612778                   1

[5d]
[7f]
[9g]

[MO]
 Sym= A
 Ene=               0
 Spin= Alpha
 Occup=    1.00000
   1       1.0140444661764
   2    -0.030949266116606
   3    -0.067348373800825
   4    9.7953837314334e-18
   5    0.0076714765787223
   6    0.0076714765786744
   7    2.4814675152879e-18
   8    0.0033139896851633
   9    0.0033139896851325
  10    -0.00058871613782527
  11    6.5743297468099e-20
  12    0.00063147953461094
  13    0.0010196862619418
  14    1.8385958967908e-19
  15    -0.0063798830403208
  16    0.0054435950982962
  17     -0.00637988304035
  18    0.0054435950982779
 Sym= A
 Ene=               1
 Spin= Alpha
 Occup=    1.00000
   1     -0.11279547900844
   2      0.47378715652047
   3      0.56712133721309
   4    -3.5418733860537e-16
   5     -0.20197469403168
   6     -0.20197469403211
   7    -2.18235356981e-16
   8       -0.146635019847
   9     -0.14663501984728
  10    -0.0020586690704329
  11    -1.1150474058269e-17
  12    -0.016568473958336
  13    0.0035657194258966
  14    -1.2946585764814e-17
  15    -0.012369462636137
  16    -0.064673407735381
  17    -0.012369462636401
  18    -0.064673407735554
 Sym= A
 Ene=               2
 Spin= Alpha
 Occup=    1.00000
   1    7.5055583130962e-13
   2    -3.1290546767166e-12
   3    -2.1961021308149e-12
   4    -3.2521792626899e-20
   5      0.36041957081518
   6     -0.36041957082559
   7    1.6468127427503e-16
   8      0.23021015773678
   9     -0.23021015774425
  10    -0.046853487952589
  11    1.3005691606068e-17
  12    -4.0273081813051e-13
  13    -0.027050873881327
  14    1.1676119268358e-16
  15      0.21945060214713
  16      0.13986939269119
  17     -0.21945060215366
  18     -0.13986939269321
 Sym= A
 Ene=               3
 Spin= Alpha
 Occup=    1.00000
   1    -0.045509490546815
   2      0.17259832573886
   3      0.11298567001785
   4    -1.0455755696722e-16
   5      0.32312813315774
   6      0.32312813314586
   7    -1.1419087571864e-16
   8      0.23208951772451
   9      0.23208951771691
  10     0.015132778903618
  11    -5.2670937170472e-18
  12     0.025037168611586
  13    -0.026210741922556
  14    -3.0704588755326e-18
  15      0.19857483872769
  16     0.063583670794506
  17      0.19857483872045
  18       0.0635836707899
 Sym= A
 Ene=               4
 Spin= Alpha
 Occup=    1.00000
   1    -7.4277837983248e-17
   2    2.4712893090767e-16
   3    3.5148201571139e-16
   4      0.64232821617559
   5    4.4405374607246e-17
   6    -7.195112196502e-17
   7      0.50849522944382
   8    -2.164560218498e-16
   9    2.7387438255482e-16
  10    6.7538737223716e-17
  11     0.024828255717965
  12    -1.5253227184342e-18
  13    5.8959058489826e-17
  14     0.024828255717964
  15    1.1263862652997e-16
  16    1.6770206132238e-17
  17    -8.50180738639e-17
  18    -1.023741702756e-16
