[Molden Format]
made by pyscf v[1.6.4]
[Atoms] (AU)
O   1   8     0.00000000000000     0.00000000000000     0.00000000000000
H   2   1     0.00000000000000     1.88972612456506     0.00000000000000
H   3   1     0.00000000000000     0.00000000000000     1.88972612456506
[GTO]
1 0
 s    6 1.00
             5484.6717   0.001831099805527
             825.23495   0.013950098518422
             188.04696    0.06844509273075
               52.9645    0.23271427528445
              16.89757    0.47019295006289
             5.7996353    0.35852086192309
 s    3 1.00
             15.539616   -0.11077750382508
             3.5999336   -0.14802630511126
             1.0137618     1.1307670390447
 s    1 1.00
             0.2700058                   1
 p    3 1.00
             15.539616   0.070874299543311
             3.5999336    0.33975279781076
             1.0137618    0.72715859531445
 p    1 1.00
             0.2700058                   1
 d    1 1.00
                   0.8                   1

2 0
 s    3 1.00
             18.731137    0.03349459952309
             2.8253937    0.23472694665786
             0.6401217    0.81375731841339
 s    1 1.00
             0.1612778                   1

3 0
 s    3 1.00
             18.731137    0.03349459952309
             2.8253937    0.23472694665786
             0.6401217    0.81375731841339
 s    1 1.00
             0.1612778                   1

[5d]
[7f]
[9g]

[MO]
 Sym= A
 Ene=               0
 Spin= Alpha
 Occup=    1.00000
   1        1.014014056099
   2    -0.030820677454893
   3     -0.06718920377993
   4    -6.1200277146898e-15
   5    0.0075944178774737
   6    0.0075944178774731
   7    -4.8501358422699e-15
   8     0.003258185011296
   9    0.0032581850112954
  10    -0.00059016532517479
  11    -2.3687277391609e-16
  12    0.00062524062929267
  13    0.0010221963280679
  14    -2.3675530494112e-16
  15    -0.0063946258375315
  16    0.0054211564739916
  17    -0.0063946258375318
  18    0.0054211564739917
 Sym= A
 Ene=               1
 Spin= Alpha
 Occup=    1.00000
   1     -0.11210863465607
   2      0.45707347041595
   3      0.48092667419409
   4    -5.683244664065e-16
   5     0.085658840447027
   6     0.085658840447045
   7    -4.2817435293114e-16
   8     0.060418916916599
   9     0.060418916916611
  10    0.0092446180759243
  11    -2.1038114772736e-17
  12    0.0059875085964698
  13    -0.016012148204067
  14    -2.0754984938945e-17
  15      0.13166481250141
  16    -0.000773494635442
  17      0.13166481250142
  18    -0.00077349463543471
 Sym= A
 Ene=               2
 Spin= Alpha
 Occup=    1.00000
   1    -5.0296505177007e-15
   2    1.6583167592414e-14
   3    2.4488674832354e-14
   4    2.4633389342892e-17
   5      0.36041957082037
   6     -0.36041957082039
   7    1.8420789295087e-16
   8      0.23021015774051
   9     -0.23021015774052
  10    -0.046853487952341
  11    1.3959116247482e-17
  12    -6.8859874874643e-16
  13    -0.027050873881757
  14    1.1771461732503e-16
  15      0.21945060215039
  16      0.13986939269219
  17     -0.21945060215039
  18      -0.1398693926922
 Sym= A
 Ene=               3
 Spin= Alpha
 Occup=    1.00000
   1     0.047825320352571
   2     -0.21297003847468
   3     -0.32112820048914
   4    4.5873743154376e-16
   5      0.37130756373487
   6      0.37130756373485
   7    2.9698949298495e-16
   8      0.26780084861348
   9      0.26780084861346
  10     0.012156251228104
  11    1.5069019915443e-17
  12     0.029419920509042
  13    -0.021055244756651
  14    1.7892353384535e-17
  15      0.14916151982725
  16     0.090692769037322
  17      0.14916151982723
  18      0.09069276903732
 Sym= A
 Ene=               4
 Spin= Alpha
 Occup=    1.00000
   1    9.5388493338502e-15
   2    2.2016597584506e-16
   3    3.4036403586882e-17
   4      0.64232821617559
   5    -2.7576760309358e-17
   6    -1.1625246415857e-16
   7      0.50849522944382
   8    -2.8892499960517e-16
   9    2.1908590878722e-16
  10    6.1875608174451e-17
  11     0.024828255717965
  12    -6.2113648226326e-18
  13    7.2922985475165e-17
  14     0.024828255717964
  15    2.7651295174045e-17
  16    2.2990591423351e-17
  17    -1.5315125210808e-16
  18    -8.5411594546275e-17
