[Molden Format]
made by pyscf v[1.6.4]
[Atoms] (AU)
O   1   8     0.00000000000000     0.00000000000000     0.00000000000000
H   2   1     0.00000000000000     1.88972612456506     0.00000000000000
H   3   1     0.00000000000000     0.00000000000000     1.88972612456506
[GTO]
1 0
 s    6 1.00
             5484.6717   0.001831099805527
             825.23495   0.013950098518422
             188.04696    0.06844509273075
               52.9645    0.23271427528445
              16.89757    0.47019295006289
             5.7996353    0.35852086192309
 s    3 1.00
             15.539616   -0.11077750382508
             3.5999336   -0.14802630511126
             1.0137618     1.1307670390447
 s    1 1.00
             0.2700058                   1
 p    3 1.00
             15.539616   0.070874299543311
             3.5999336    0.33975279781076
             1.0137618    0.72715859531445
 p    1 1.00
             0.2700058                   1
 d    1 1.00
                   0.8                   1

2 0
 s    3 1.00
             18.731137    0.03349459952309
             2.8253937    0.23472694665786
             0.6401217    0.81375731841339
 s    1 1.00
             0.1612778                   1

3 0
 s    3 1.00
             18.731137    0.03349459952309
             2.8253937    0.23472694665786
             0.6401217    0.81375731841339
 s    1 1.00
             0.1612778                   1

[5d]
[7f]
[9g]

[MO]
 Sym= A
 Ene=               0
 Spin= Alpha
 Occup=    1.00000
   1       1.0123109381231
   2    -0.030882084377434
   3    -0.067197495734448
   4     0.037514820311764
   5    0.0075721534871846
   6    0.0075735852937193
   7     0.029698379553607
   8     0.003246294281105
   9    0.0032472088163712
  10    -0.00059085914079863
  11    0.0014500803926374
  12    0.00062368100301878
  13    0.0010236129771453
  14    0.0014500803926374
  15    -0.0064104462439967
  16    0.0054146256471583
  17    -0.0064095744522527
  18    0.0054151812937623
 Sym= A
 Ene=               1
 Spin= Alpha
 Occup=    1.00000
   1     -0.11143834775135
   2      0.46814543299781
   3      0.56330760750778
   4    0.00015518930447627
   5     -0.21200965570745
   6     -0.21200893068753
   7    0.00012285466993304
   8     -0.15384164571245
   9     -0.15384118262175
  10    -0.0025320861223615
  11    5.9986150992599e-06
  12    -0.017345544703228
  13    0.0043858106441347
  14    5.998615099258e-06
  15    -0.018589928480634
  16    -0.066636335821072
  17    -0.018589487033854
  18    -0.066636054459839
 Sym= A
 Ene=               2
 Spin= Alpha
 Occup=    1.00000
   1     0.034525377266297
   2     -0.13248637239703
   3    -0.092419207859396
   4    -7.4976509918102e-07
   5     0.030959928293295
   6     -0.47875148883584
   7    -5.9354698493366e-07
   8    0.0020035019175074
   9     -0.32356357390013
  10    -0.043779969673335
  11    -2.8981070947309e-08
  12    -0.017327910956118
  13    -0.00068246952294907
  14    -2.8981070875456e-08
  15     0.015106282969167
  16     0.055397875715569
  17     -0.29524444842234
  18     -0.14240777118606
 Sym= A
 Ene=               3
 Spin= Alpha
 Occup=    1.00000
   1    -0.034522236869868
   2      0.13248754320793
   3       0.0924202059747
   4    -5.7957506949542e-06
   5      0.47875107022383
   6    -0.030958003012139
   7    -4.5881708216331e-06
   8      0.32356335655478
   9    -0.0020022221521097
  10    -0.022480825087316
  11    -2.2402624811233e-07
  12      0.01732796805122
  13    -0.037573318267309
  14    -2.2402624803745e-07
  15      0.29524433056311
  16      0.14240743998278
  17    -0.015104973689566
  18    -0.055397297315316
 Sym= A
 Ene=               4
 Spin= Alpha
 Occup=    1.00000
   1    -0.059197853765826
   2    0.0016944781989857
   3    0.0037957400439511
   4      0.64123174549801
   5    -0.00038733018702732
   6    -0.00039261710092504
   7      0.50762721509425
   8    -0.00014976297509766
   9    -0.00015313987630026
  10    3.4926232812365e-05
  11      0.02478587325105
  12    -3.2153743426787e-05
  13    -6.128761615904e-05
  14      0.02478587325105
  15    0.00038222403593014
  16    -0.00029929985459092
  17    0.00037900496423607
  18    -0.00030135156736123
