[Molden Format]
made by pyscf v[1.6.4]
[Atoms] (AU)
C   1   6     8.83219251236156    11.86927152263468     0.00000000000000
C   2   6    11.15163290902210    10.53014167090126     0.00000000000000
C   3   6    11.15163290902210     7.85188196743444     0.00000000000000
C   4   6     8.83219251236156     6.51275211570103     0.00000000000000
C   5   6     6.51275211570103     7.85188196743444     0.00000000000000
C   6   6     6.51275211570103    10.53014167090126     0.00000000000000
H   7   1     8.83219251236156    13.94029797159051     0.00000000000000
H   8   1    12.94519276083417    11.56565489537918     0.00000000000000
H   9   1    12.94519276083417     6.81637063268265     0.00000000000000
H   10   1     8.83219251236156     4.44172755647132     0.00000000000000
H   11   1     4.71919226388896     6.81637063268265     0.00000000000000
H   12   1     4.71919226388896    11.56565489537918     0.00000000000000
[GTO]
1 0
 s    6 1.00
             3047.5249  0.0018347001629433
             457.36951    0.01403730124668
             103.94869   0.068842606114048
             29.210155    0.23218442062076
              9.286663    0.46794134155879
              3.163927    0.36231203217765
 s    3 1.00
             7.8682724   -0.11933240861517
             1.8812885   -0.16085421161283
             0.5442493     1.1434564825515
 s    1 1.00
             0.1687144                   1
 p    3 1.00
             7.8682724   0.068999095584993
             1.8812885    0.31642397975315
             0.5442493    0.74430825237435
 p    1 1.00
             0.1687144                   1
 d    1 1.00
                   0.8                   1

2 0
 s    6 1.00
             3047.5249  0.0018347001629433
             457.36951    0.01403730124668
             103.94869   0.068842606114048
             29.210155    0.23218442062076
              9.286663    0.46794134155879
              3.163927    0.36231203217765
 s    3 1.00
             7.8682724   -0.11933240861517
             1.8812885   -0.16085421161283
             0.5442493     1.1434564825515
 s    1 1.00
             0.1687144                   1
 p    3 1.00
             7.8682724   0.068999095584993
             1.8812885    0.31642397975315
             0.5442493    0.74430825237435
 p    1 1.00
             0.1687144                   1
 d    1 1.00
                   0.8                   1

3 0
 s    6 1.00
             3047.5249  0.0018347001629433
             457.36951    0.01403730124668
             103.94869   0.068842606114048
             29.210155    0.23218442062076
              9.286663    0.46794134155879
              3.163927    0.36231203217765
 s    3 1.00
             7.8682724   -0.11933240861517
             1.8812885   -0.16085421161283
             0.5442493     1.1434564825515
 s    1 1.00
             0.1687144                   1
 p    3 1.00
             7.8682724   0.068999095584993
             1.8812885    0.31642397975315
             0.5442493    0.74430825237435
 p    1 1.00
             0.1687144                   1
 d    1 1.00
                   0.8                   1

4 0
 s    6 1.00
             3047.5249  0.0018347001629433
             457.36951    0.01403730124668
             103.94869   0.068842606114048
             29.210155    0.23218442062076
              9.286663    0.46794134155879
              3.163927    0.36231203217765
 s    3 1.00
             7.8682724   -0.11933240861517
             1.8812885   -0.16085421161283
             0.5442493     1.1434564825515
 s    1 1.00
             0.1687144                   1
 p    3 1.00
             7.8682724   0.068999095584993
             1.8812885    0.31642397975315
             0.5442493    0.74430825237435
 p    1 1.00
             0.1687144                   1
 d    1 1.00
                   0.8                   1

5 0
 s    6 1.00
             3047.5249  0.0018347001629433
             457.36951    0.01403730124668
             103.94869   0.068842606114048
             29.210155    0.23218442062076
              9.286663    0.46794134155879
              3.163927    0.36231203217765
 s    3 1.00
             7.8682724   -0.11933240861517
             1.8812885   -0.16085421161283
             0.5442493     1.1434564825515
 s    1 1.00
             0.1687144                   1
 p    3 1.00
             7.8682724   0.068999095584993
             1.8812885    0.31642397975315
             0.5442493    0.74430825237435
 p    1 1.00
             0.1687144                   1
 d    1 1.00
                   0.8                   1

6 0
 s    6 1.00
             3047.5249  0.0018347001629433
             457.36951    0.01403730124668
             103.94869   0.068842606114048
             29.210155    0.23218442062076
              9.286663    0.46794134155879
              3.163927    0.36231203217765
 s    3 1.00
             7.8682724   -0.11933240861517
             1.8812885   -0.16085421161283
             0.5442493     1.1434564825515
 s    1 1.00
             0.1687144                   1
 p    3 1.00
             7.8682724   0.068999095584993
             1.8812885    0.31642397975315
             0.5442493    0.74430825237435
 p    1 1.00
             0.1687144                   1
 d    1 1.00
                   0.8                   1

7 0
 s    3 1.00
             18.731137    0.03349459952309
             2.8253937    0.23472694665786
             0.6401217    0.81375731841339
 s    1 1.00
             0.1612778                   1

8 0
 s    3 1.00
             18.731137    0.03349459952309
             2.8253937    0.23472694665786
             0.6401217    0.81375731841339
 s    1 1.00
             0.1612778                   1

9 0
 s    3 1.00
             18.731137    0.03349459952309
             2.8253937    0.23472694665786
             0.6401217    0.81375731841339
 s    1 1.00
             0.1612778                   1

10 0
 s    3 1.00
             18.731137    0.03349459952309
             2.8253937    0.23472694665786
             0.6401217    0.81375731841339
 s    1 1.00
             0.1612778                   1

11 0
 s    3 1.00
             18.731137    0.03349459952309
             2.8253937    0.23472694665786
             0.6401217    0.81375731841339
 s    1 1.00
             0.1612778                   1

12 0
 s    3 1.00
             18.731137    0.03349459952309
             2.8253937    0.23472694665786
             0.6401217    0.81375731841339
 s    1 1.00
             0.1612778                   1

[5d]
[7f]
[9g]

[MO]
 Sym= A
 Ene=               0
 Spin= Alpha
 Occup=    1.00000
   1    0.00032085550974553
   2    -0.00032342012199131
   3    -0.0026034476359822
   4    -7.7450856066231e-07
   5    0.0001067749656361
   6    2.5022861403971e-06
   7    -6.5079209671987e-07
   8    0.0011786091822846
   9    2.4997921057113e-06
  10    4.3560155505815e-05
  11    -1.0695567499583e-08
  12    -2.659744177295e-08
  13    4.767139540001e-05
  14    6.5340518918574e-08
  15    0.00018490797997388
  16    -0.00027273778497888
  17    0.00058207451344285
  18    7.0645595403283e-05
  19    0.0010175535134396
  20    2.3066800497866e-07
  21    -0.0002643908179571
  22    0.0007182925756731
  23    5.3988291272153e-07
  24    -2.2369972874001e-05
  25    -9.4088763324925e-08
  26    2.4206082735535e-07
  27    -5.676056933365e-05
  28    0.00028958427546315
  29    -0.0030503214982685
  30     0.008761997628763
  31    -0.0011213206462298
  32    -0.011858239741845
  33    -0.0064309784195829
  34    -4.0399574203132e-06
  35    -0.0012600574893177
  36    -0.00057495150748022
  37    -3.1447313496178e-06
  38    -0.00075392543226244
  39    2.6492983695549e-07
  40    1.3107563377844e-07
  41    0.00067050926112249
  42    0.0013015763400082
  43      -1.0079649328877
  44    0.0040528427756874
  45       0.0389579800642
  46    1.2730244883002e-06
  47    5.1335427821627e-05
  48    -6.0389634598575e-06
  49    6.7872799059873e-07
  50    -0.00014771925623835
  51    -4.869435802898e-06
  52    -0.0009349630804004
  53    -1.0695568732591e-08
  54    -2.2210487197451e-07
  55    -0.00046963598529672
  56    4.8299118968708e-08
  57    -0.0030493146676783
  58    0.0087627915274166
  59    -0.0011203537026577
  60     0.011855779243506
  61    -0.0064306089939703
  62    -3.7673444198775e-06
  63    0.0012583007337361
  64    -0.00057488782502223
  65    -2.9095259692153e-06
  66    -0.00075396733395271
  67    -2.6340321901031e-07
  68    1.4430720097208e-07
  69    0.00067059773304436
  70    -0.0013012352382387
  71    0.00019133270679382
  72    -0.00027528201804527
  73    0.0005794483028964
  74    -6.5518815203238e-05
  75    0.0010151678583746
  76    5.0328099191582e-07
  77    0.00026743815116831
  78    0.00071699044942278
  79    7.7508827081736e-07
  80    -2.2170108959653e-05
  81    9.5615387499531e-08
  82    2.2882925925819e-07
  83    -5.7005455281019e-05
  84    -0.00028912070492023
  85    -0.00024544481657685
  86    -0.00043994604944988
  87    0.00079772691353635
  88    0.0010159723598542
  89    -0.0012211864694039
  90    -0.0020320818254286
  91     0.011083328722921
  92    0.0010612578124906
  93    -0.0012193033362161
  94    -0.0020306461556027
  95    0.00079286498631223
  96    0.0010126686719034
 Sym= A
 Ene=               1
 Spin= Alpha
 Occup=    1.00000
   1    0.00017572239591881
   2    -0.0002722058212079
   3    0.00058395102684618
   4    0.00084548884124872
   5    0.00056626663650086
   6    -3.0959494103305e-08
   7    0.00075383920566623
   8    0.00012671228560664
   9    1.3063155225142e-07
  10    -2.2345485726114e-05
  11    7.0895593636865e-08
  12    2.2256583703527e-08
  13    -0.00022174879431684
  14    0.00019378951226187
  15    0.00031675908435194
  16    -0.00032124653712133
  17    -0.0026020026485719
  18    9.3408352515031e-05
  19    5.6799946025054e-05
  20    4.7989969305014e-07
  21    0.0010223041227033
  22    0.00059111347333354
  23    5.7139123403387e-07
  24    4.3455214741974e-05
  25    1.0089833807322e-09
  26    1.3015425484131e-08
  27    -2.357223441167e-05
  28    -4.1038914860444e-05
  29    0.0001803782053686
  30    -0.00027506337236617
  31    0.00058145185232625
  32    0.00090950538145919
  33    0.00044712620431155
  34    -3.0539824928016e-07
  35    0.00048500203364629
  36    0.00058897556019261
  37    -1.0614883644058e-07
  38    -2.2190693295037e-05
  39    6.7026627932314e-08
  40    5.5598248569492e-08
  41    0.00027885426223808
  42    -9.4978878048014e-05
  43    -0.0030292901555572
  44    0.0087623463469069
  45    -0.0011215530137903
  46    -0.011489428085414
  47    0.0070481171682901
  48    -1.6015552407309e-06
  49    -0.0011250264538828
  50     0.000799897206825
  51    -1.224448627603e-06
  52    -0.00075384672159719
  53    7.0895601807484e-08
  54    -6.7988842893258e-08
  55    0.00079146760067171
  56    -0.0012307233094393
  57      -1.0079602890593
  58    0.0040380652371228
  59     0.038947625002384
  60    4.0696689929037e-05
  61    2.1590665161497e-05
  62    -2.1124141462558e-06
  63    -0.00012771326401219
  64    -7.4417730616488e-05
  65    -1.6652082384525e-06
  66    -0.00093435288877255
  67    -7.7145818471262e-08
  68    -3.2107224839011e-08
  69    0.00023499940751397
  70    0.00040673636321743
  71    -0.0030389951435587
  72    0.0087602123035045
  73    -0.001122956460201
  74    0.00035695635058416
  75     -0.01347221587229
  76    -1.3271161144831e-06
  77    0.00012923165021283
  78    -0.0013735812051213
  79    -9.8766802004213e-07
  80    -0.00075382587383327
  81    -1.1128215235843e-08
  82    1.007209048471e-07
  83    -0.0014614465272042
  84    6.9926121781763e-05
  85    0.00079486965122286
  86    0.0010133530965443
  87    -0.00024274023080087
  88    -0.00043834784966496
  89    0.00079261175306081
  90    0.0010124305367858
  91    -0.0012176658003798
  92    -0.0020301693313792
  93     0.011081108777581
  94    0.0010625362944128
  95    -0.0012164155331783
  96    -0.0020287115230067
 Sym= A
 Ene=               2
 Spin= Alpha
 Occup=    1.00000
   1    -0.00018255138947841
   2    0.0002727763266826
   3    -0.0005830326660757
   4    0.00084407389450727
   5    -0.00056574053087303
   6    1.0555830134954e-07
   7    0.00075397690275269
   8    -0.00012683614237876
   9    8.601012789552e-08
  10    2.2321617669652e-05
  11    -3.6438306782161e-08
  12    -3.7608723713053e-09
  13    0.00022187051994129
  14    0.00019391662400985
  15    0.0030390615220695
  16    -0.0087615737566641
  17    0.0011219344581078
  18    0.00035826970727334
  19     0.013472747000187
  20    -3.984637645218e-07
  21    0.00012884264757915
  22    0.0013736398026415
  23    -3.4885062054372e-07
  24    0.0007538791752462
  25    -1.9899068230636e-09
  26    2.5276872692243e-08
  27    0.0014614646153436
  28    6.9585041342879e-05
  29         1.00796026104
  30    -0.0040382026179762
  31    -0.038946765305189
  32    5.3962238175709e-05
  33    -2.2814994440793e-05
  34    -4.7775351425641e-07
  35    -0.00012141630934084
  36    7.3157005146482e-05
  37    -4.172603238812e-07
  38    0.00093423205516016
  39    4.6757320846168e-09
  40    -1.8349106474089e-08
  41    -0.00023478251592351
  42    0.00040585744270845
  43    0.0030290414320463
  44    -0.0087657528327168
  45    0.0011191000973567
  46    -0.011497781321288
  47    -0.0070508647699406
  48    -5.3021129159922e-08
  49    -0.001128639546143
  50    -0.00080043542788396
  51    -5.0809191674995e-08
  52    0.00075398349291281
  53    -3.6438310956812e-08
  54    -8.5661235628671e-10
  55    -0.0007914220673657
  56    -0.0012312563152787
  57    -0.00018964520466536
  58    0.00027387253905654
  59    -0.00058204085808256
  60    0.00091416267668181
  61    -0.00044872038819734
  62    4.5100095692019e-07
  63    0.00048799093831847
  64    -0.00058953625310679
  65    3.8405160308521e-07
  66    2.2316946874252e-05
  67    5.2524233985042e-10
  68    2.6728997553143e-08
  69    -0.00027908100662257
  70    -9.5402699795153e-05
  71    -0.00030892683215833
  72    0.00032470425071927
  73    0.0026051405355502
  74    9.1081699456239e-05
  75    -5.2977827628489e-05
  76    5.3029066062112e-07
  77    0.0010204459268018
  78    -0.00058942733254987
  79    4.5246123046908e-07
  80    -4.364390437471e-05
  81    7.1909024602991e-09
  82    -1.9801234449976e-08
  83    2.3817181688941e-05
  84    -4.1368210396329e-05
  85    -0.00079457160006856
  86    -0.0010134862102798
  87    0.0012161069445336
  88    0.0020282787198699
  89    -0.011073312994904
  90    -0.0010567063577739
  91    0.0012177831449048
  92    0.0020306123930393
  93    -0.00079559196699941
  94    -0.001014949077071
  95    0.00024669080409588
  96    0.00044085407196919
 Sym= A
 Ene=               3
 Spin= Alpha
 Occup=    1.00000
   1       1.0079625387251
   2    -0.0040452217158455
   3    -0.038952691932408
   4    8.0805156926936e-07
   5    4.3952215913515e-05
   6    7.7949268374473e-07
   7    2.0389136070177e-07
   8    -0.00015022904985342
   9    6.6280020894375e-07
  10    0.00093468515976287
  11    4.6439692442785e-09
  12    -2.4017887369888e-08
  13    0.00046998567404482
  14    -1.6967083906943e-08
  15    0.0030283926964504
  16    -0.0087604732449573
  17    0.0011226672958079
  18     0.011850621340489
  19    -0.0064273501184162
  20    4.741718202797e-07
  21    0.0012568671721971
  22    -0.00057398198940055
  23    3.9937518646994e-07
  24    0.00075383356408257
  25    -3.3391082489336e-08
  26    2.7579882875247e-08
  27    -0.00067015192047249
  28    0.0013010298871749
  29    -0.00018653700285008
  30    0.00027329710429007
  31    -0.00058197669461716
  32    -6.7558423790912e-05
  33    0.0010143016551512
  34    -2.5483753501161e-07
  35    0.00026647538843313
  36    0.00071645618933247
  37    -2.2960019311017e-07
  38    2.2240074762013e-05
  39    2.7894545088914e-08
  40    3.611569869514e-08
  41    5.6913190385731e-05
  42    0.00028914383440708
  43    -0.00031017292766389
  44    0.00032423039396291
  45    0.0026035354897335
  46    8.5650581814305e-08
  47    0.00010529793142597
  48    -6.7852582158042e-07
  49    3.2473565507976e-08
  50     0.001177858625042
  51     -5.9515045852e-07
  52    -4.3626977022662e-05
  53    4.6439697925498e-09
  54    -1.8436402679085e-08
  55    -4.7726093840708e-05
  56    -3.3014128203893e-08
  57    -0.00019316883684978
  58    0.00027329162453237
  59    -0.00058168880953977
  60    6.8466207150038e-05
  61    0.0010158758682142
  62    -3.732049234863e-07
  63    -0.00026607212754471
  64    0.00071717645075718
  65    -3.3172535437877e-07
  66    2.2271840071171e-05
  67    -2.8557396013376e-08
  68    3.0370609313421e-08
  69    5.6838168369522e-05
  70    -0.00028918109707628
  71    0.0030406613380709
  72    -0.0087611830133343
  73    0.0011215845907226
  74    -0.011849807734921
  75    -0.0064297041150839
  76    3.5580443767021e-07
  77    -0.0012563670832729
  78    -0.00057495609036585
  79    2.9725003488734e-07
  80    0.00075390013160697
  81    3.2728228859687e-08
  82    3.3324972649542e-08
  83    -0.00067028746843412
  84    -0.0013009877524596
  85    -0.011085069639735
  86    -0.0010639293492188
  87    0.0012190310603009
  88    0.0020303561765261
  89    -0.00079434869753377
  90    -0.001013218416913
  91    0.00024650586449661
  92    0.00044060562896409
  93    -0.00079527022741587
  94    -0.0010139770527587
  95    0.0012175101040707
  96    0.0020294653091414
 Sym= A
 Ene=               4
 Spin= Alpha
 Occup=    1.00000
   1    0.0030486012843314
   2    -0.0087595083374808
   3    0.0011230502316526
   4    -0.011486639843214
   5    0.0070473874935561
   6    -5.6578884634129e-07
   7    -0.0011242133607685
   8    0.00079929659127534
   9    -4.3641911882786e-07
  10    0.00075378069674656
  11    -1.2296853057571e-09
  12    2.3495883958883e-08
  13    -0.0007911337364581
  14    0.0012306807259673
  15        1.007960347523
  16    -0.0040383947841012
  17    -0.038946953594763
  18    4.2038445431131e-05
  19    3.277985743536e-05
  20    -4.3275437806814e-07
  21    -0.00012664380654925
  22    -7.0092201723889e-05
  23    -3.2163954118488e-07
  24    0.00093430394592947
  25    2.5437277718202e-08
  26    -4.8142781101961e-09
  27    -0.00023431203575053
  28    -0.00040662069074721
  29    0.0030400030996815
  30    -0.0087648595371705
  31    0.0011192435456363
  32      0.00035728267706
  33    -0.013480649469893
  34    -1.3534270233361e-07
  35    0.00012926755235574
  36    -0.0013769222666724
  37    -6.5038415512876e-08
  38    0.00075397892619185
  39    4.3476625801765e-10
  40    -2.1171409640877e-08
  41    0.0014618902304843
  42    -6.9895479950818e-05
  43    -0.00018432870836866
  44    0.00027351892752739
  45    -0.0005822891162725
  46    0.0008450290190911
  47    0.00056675331193736
  48    2.9034420607235e-08
  49    0.00075421765853683
  50    0.00012772691618568
  51    7.6783093470258e-08
  52    2.2313945123678e-05
  53    -1.2296854238478e-09
  54    -6.1759302726062e-09
  55    0.00022211573539714
  56    -0.00019395406329343
  57    -0.0003137815884841
  58    0.00032491258696033
  59    0.0026051418493674
  60    9.0324505660019e-05
  61    5.1698758342564e-05
  62    -1.0399998078963e-07
  63    0.0010201905813693
  64    0.00058860053540796
  65    -3.7996503607775e-08
  66    -4.367524051401e-05
  67    -2.5924872921621e-10
  68    -1.9650156710209e-08
  69    2.3933567123358e-05
  70    4.129941108403e-05
  71    -0.00018638061249493
  72    0.00027327819221053
  73    -0.0005822652167267
  74    0.0009094249148618
  75    0.00044891306512623
  76    -4.014116580753e-07
  77    0.00048567456905206
  78    0.00058976312849131
  79    -2.9459763175803e-07
  80    2.2232937234286e-05
  81    -2.5261759541657e-08
  82    -6.3355311837112e-09
  83    -0.0002787742894295
  84    9.5063950619516e-05
  85    0.0012173922303226
  86    0.0020289682671189
  87     -0.01107691512799
  88    -0.0010593740657546
  89    0.0012174891054125
  90    0.0020303480642811
  91    -0.00079533704229297
  92    -0.0010145339562466
  93    0.00024745350256509
  94    0.00044118893080364
  95    -0.0007926506927921
  96    -0.0010120237660713
 Sym= A
 Ene=               5
 Spin= Alpha
 Occup=    1.00000
   1    -0.0030384557708647
   2    0.0087652663211566
   3    -0.0011197813362094
   4      -0.0115010005784
   5    -0.0070522062725446
   6    8.3224641336434e-07
   7    -0.0011308081286052
   8    -0.00079853668183026
   9    6.5846957472264e-07
  10    -0.00075386166744836
  11    -3.6120687279448e-08
  12    -3.2319171118463e-08
  13    0.00079070677920484
  14    0.0012317380941013
  15    0.00018429441635056
  16    -0.00027764471521789
  17    0.00057982446165375
  18    0.00091607107634588
  19    -0.00045010421596651
  20    1.1032899244518e-07
  21    0.00048834319694757
  22    -0.00059090889687852
  23    3.5612886693303e-08
  24    -2.2231132318281e-05
  25    -3.42094990067e-08
  26    3.6655569848032e-08
  27    0.00027919062631794
  28    9.5455114244103e-05
  29    0.00032307256807491
  30    -0.00032525954003807
  31    -0.0026077098217038
  32    9.2428647809029e-05
  33    -5.3716111561157e-05
  34    -4.128471519627e-07
  35    0.0010218077146665
  36    -0.00058969489191473
  37    -4.1577353940107e-07
  38    4.364969739707e-05
  39    9.7723407628424e-09
  40    9.0557890546395e-09
  41    -2.3740621756055e-05
  42    4.1385329085703e-05
  43    0.00017833738779649
  44    -0.00027224861614357
  45    0.00058448568296481
  46    0.0008442952590786
  47    -0.00056753226806629
  48    -2.1410567823643e-07
  49    0.00075449262387456
  50    -0.00012770820541939
  51    -2.4430312958523e-07
  52    -2.2453887376442e-05
  53    -3.6120691405482e-08
  54    1.8516909824237e-09
  55    -0.0002222916681127
  56    -0.00019421781055654
  57    -0.0030393544144565
  58    0.0087638124103693
  59    -0.0011212501121926
  60    0.00036358457578191
  61     0.013481961546491
  62    5.0781170295655e-07
  63    0.00012902101495867
  64    0.0013776344319615
  65    3.7855364178766e-07
  66    -0.00075378236826918
  67    -4.6167013542256e-09
  68    5.3740963575782e-08
  69    -0.0014618684105687
  70    -6.9319030968925e-05
  71       -1.007957041915
  72    0.0040280974129297
  73     0.038937896998414
  74    7.5599812549468e-05
  75    -3.9925963120489e-05
  76    1.0309878017637e-06
  77    -0.000109249379901
  78    6.4280307346871e-05
  79    8.299399926101e-07
  80    -0.00093344176336776
  81    3.9365159387197e-08
  82    -8.0296077676098e-09
  83    0.00023357376861085
  84    -0.00040438354134231
  85    -0.0012174754888204
  86    -0.0020300387214159
  87    0.00079513490440179
  88    0.0010157989579666
  89    -0.0002462532320855
  90    -0.00044063970393145
  91    0.00079670029329596
  92     0.001015856508713
  93    -0.0012202550621331
  94    -0.0020316632231518
  95     0.011052154485319
  96    0.0010430690285989
 Sym= A
 Ene=               6
 Spin= Alpha
 Occup=    1.00000
   1    0.0097751359058357
   2    -0.021550122775922
   3    -0.029709439925645
   4    -0.029291428682757
   5     0.015834665367608
   6    -1.0498668067662e-05
   7    -0.021988270670296
   8     0.018690173439171
   9    -7.6210546720185e-06
  10    -0.0012903529649966
  11    -9.3505859199077e-07
  12    5.0073245797978e-07
  13    -0.0067954538447086
  14    -0.0060375154689894
  15    -0.070344706766519
  16      0.22812772772069
  17      0.16580178820334
  18     0.010840383317749
  19     -0.35365158996009
  20    -2.089330959705e-05
  21    0.0013518233213306
  22     -0.12382432052011
  23    -1.6589357034845e-05
  24    -0.0095718551639949
  25    5.5156726165849e-07
  26    6.5145874515986e-07
  27     -0.02131976831871
  28    0.00087250686772596
  29    -0.070365288302712
  30      0.22813415191495
  31      0.16580758551264
  32     0.010847109625571
  33      0.35364717434596
  34    -1.7849439808504e-05
  35    0.0013571188754457
  36      0.12382185564635
  37    -1.3963164672449e-05
  38    -0.0095722090248648
  39     2.95677801111e-07
  40    -9.1741014798258e-07
  41    -0.021319321076789
  42    -0.00087325476438256
  43    0.0097709905267799
  44    -0.021549829001978
  45    -0.029708604305012
  46    -0.029291304077321
  47    -0.015835210947861
  48    -4.4109281917606e-06
  49    -0.021988964269996
  50    -0.018689285312977
  51    -2.3686684191126e-06
  52    -0.0012904624916852
  53    -9.3505869942615e-07
  54    -3.2347060252857e-07
  55    -0.0067952528248039
  56    0.0060375407548528
  57    0.0034783818360374
  58    -0.0052010665355321
  59    -0.014580167255486
  60    -0.013860388314094
  61    0.0034651009795216
  62    5.9837161494465e-06
  63    -0.0099769151964811
  64    0.0048975672546405
  65    6.5996349898456e-06
  66    -0.00014406015457374
  67    -1.622134266401e-07
  68    2.3935788569845e-07
  69    -0.00084939336477421
  70    -0.00015220820201407
  71    0.0034783848492831
  72    -0.0052014843251209
  73    -0.014579513413988
  74    -0.013860401737764
  75    -0.0034654562437937
  76    2.9398451805799e-06
  77    -0.0099764270006749
  78    -0.0048980739751053
  79    3.973440676778e-06
  80    -0.00014406175876812
  81    -4.1810234242142e-07
  82    -5.0530936769894e-07
  83    -0.00084937563401764
  84    0.0001522063278187
  85     0.018261817002943
  86      0.03457483214836
  87     -0.02202075455204
  88     -0.05605487809225
  89    -0.022012618305567
  90    -0.056050336931964
  91     0.018262052704685
  92     0.034575192803491
  93     0.001904976782379
  94    -0.00071541500160063
  95    0.0019048449180643
  96    -0.00071512080812939
 Sym= A
 Ene=               7
 Spin= Alpha
 Occup=    1.00000
   1    0.0034819616455199
   2    -0.0052010187999402
   3    -0.014580436708269
   4    -0.0099301058661281
   5     0.010272045243946
   6    -9.8597753532396e-06
   7    -0.0092295358251001
   8    0.0061923452171787
   9    -1.0514606060202e-05
  10    -0.00014407649994767
  11    5.4829717807966e-07
  12    1.4592406647418e-08
  13    0.00055637370256774
  14    0.00065937131763279
  15    0.0097743955894526
  16    -0.021548543670332
  17    -0.029707503677642
  18    -0.00093300276020325
  19     0.033281780454258
  20    7.2656622566875e-06
  21    0.0051900949008284
  22     0.028386345486883
  23    4.2608986552526e-06
  24    -0.0012904924927466
  25    3.1447769508809e-07
  26    -1.5128166771264e-06
  27    -0.0018312504768871
  28    0.0089035150798314
  29    -0.070342829387147
  30      0.22813612598508
  31      0.16580806388106
  32     -0.30084331994321
  33     -0.18621462564725
  34    2.7541326509155e-05
  35     -0.10655378759889
  36    -0.063085289110386
  37    2.1754355781427e-05
  38    -0.0095722625219733
  39    -1.3900360382652e-06
  40    -2.5872468578862e-07
  41     0.011415759012904
  42     0.018026383850476
  43     -0.07033590359389
  44      0.22812802524673
  45      0.16580183848162
  46      0.31168998327198
  47      0.16743757932152
  48    3.0691546586896e-05
  49      0.10791042038588
  50     0.060741486380402
  51    2.4472304228232e-05
  52    -0.0095718935334996
  53    5.4829724099049e-07
  54    1.1661724024564e-06
  55    0.0099042569896435
  56     0.018899683776518
  57    0.0097778880432826
  58    -0.021547846990991
  59    -0.029707896377562
  60    -0.028359908870963
  61       0.0174488246752
  62    1.3566103704456e-05
  63    -0.027181031056022
  64    0.0096968020530405
  65    9.6967958310179e-06
  66    -0.0012904664287196
  67    1.3117755521531e-06
  68    -9.3702725845653e-07
  69    0.0086264336310654
  70    0.0028663097509282
  71    0.0034811989100877
  72    -0.0052018053066835
  73    -0.014579738420197
  74    -0.0039303945395533
  75     0.013735549830825
  76    -6.709559855711e-06
  77    -0.00074666928890283
  78     0.011088598874921
  79    -7.7966601509959e-06
  80    -0.00014408001636374
  81    -3.9273850078844e-07
  82    -8.3451405773816e-07
  83    0.00029280261622813
  84    0.00081164950990563
  85    0.0019058174051037
  86    -0.00071471702275673
  87     0.018260906636421
  88     0.034574098962306
  89    -0.022012716067181
  90    -0.056050576953521
  91    -0.022020494954804
  92    -0.056054528013722
  93     0.018263337558574
  94     0.034575412960417
  95    0.0019052014854397
  96    -0.00071472192434606
 Sym= A
 Ene=               8
 Spin= Alpha
 Occup=    1.00000
   1    0.0097728757145077
   2    -0.021551565831674
   3    -0.029710045203451
   4     0.029292071329243
   5     0.015834567414472
   6    -2.5576568725418e-05
   7        0.021988371949
   8      0.01869021438259
   9    -1.8664759535785e-05
  10    -0.0012902825045754
  11    2.4333981002595e-06
  12    1.2064946553488e-06
  13    -0.0067956286961497
  14    0.0060375437672952
  15    0.0034822986725728
  16    -0.0052017779908973
  17    -0.014580103822663
  18     0.013860245638394
  19    -0.0034667037884854
  20    9.3984889978146e-06
  21    0.0099763828866007
  22    -0.0048986454760194
  23    1.1511059713401e-05
  24    -0.00014403037582923
  25    1.0044906015482e-06
  26    -1.3636325102021e-06
  27    -0.00084944264315232
  28    -0.00015223463359937
  29    0.0034811654907333
  30    -0.0052005771818349
  31    -0.014579566011638
  32     0.013860828036186
  33    0.0034654806017568
  34    1.7325159771359e-05
  35    0.0099768665927812
  36     0.004897965387149
  37    1.835004137204e-05
  38    -0.00014407558872237
  39    3.3811968752365e-07
  40    6.7105721201361e-07
  41    -0.00084952943780463
  42    0.0001522206572759
  43    0.0097724582619904
  44    -0.021552387433489
  45    -0.029710401581384
  46     0.029295589668445
  47    -0.015838956662567
  48    -9.7232325453996e-06
  49     0.021990057282587
  50    -0.018691562798834
  51    -4.9868023964339e-06