[Molden Format]
made by pyscf v[1.6.4]
[Atoms] (AU)
O   1   8     0.00000000000000     0.00000000000000     0.00000000000000
H   2   1     0.00000000000000     1.88972612456506     0.00000000000000
H   3   1     0.00000000000000     0.00000000000000     1.88972612456506
[GTO]
1 0
 s    6 1.00
             5484.6717   0.001831099805527
             825.23495   0.013950098518422
             188.04696    0.06844509273075
               52.9645    0.23271427528445
              16.89757    0.47019295006289
             5.7996353    0.35852086192309
 s    3 1.00
             15.539616   -0.11077750382508
             3.5999336   -0.14802630511126
             1.0137618     1.1307670390447
 s    1 1.00
             0.2700058                   1
 p    3 1.00
             15.539616   0.070874299543311
             3.5999336    0.33975279781076
             1.0137618    0.72715859531445
 p    1 1.00
             0.2700058                   1
 d    1 1.00
                   0.8                   1

2 0
 s    3 1.00
             18.731137    0.03349459952309
             2.8253937    0.23472694665786
             0.6401217    0.81375731841339
 s    1 1.00
             0.1612778                   1

3 0
 s    3 1.00
             18.731137    0.03349459952309
             2.8253937    0.23472694665786
             0.6401217    0.81375731841339
 s    1 1.00
             0.1612778                   1

[5d]
[7f]
[9g]

[MO]
 Sym= A
 Ene=               0
 Spin= Alpha
 Occup=    1.00000
   1      0.03452924833296
   2     -0.13248905912357
   3    -0.092422064425276
   4    -2.8037070684894e-06
   5     0.030957326945461
   6     -0.47875049726946
   7    -2.2195376648484e-06
   8    0.0020017751187122
   9     -0.32356300580316
  10    -0.043779804146721
  11    -1.0837318725115e-07
  12    -0.017327969815857
  13    -0.00068221689941554
  14    -1.0837318717929e-07
  15     0.015104247028422
  16      0.05539712465312
  17     -0.29524429672609
  18     -0.14240712793263
 Sym= A
 Ene=               1
 Spin= Alpha
 Occup=    1.00000
   1     -0.11096870183911
   2      0.46813057192143
   3      0.56327601607175
   4    -0.00033983032220344
   5     -0.21200588649131
   6     -0.21200706964187
   7    -0.00026902460970752
   8     -0.15384003076252
   9     -0.15384078647419
  10    -0.0025325189894147
  11    -1.3135643006031e-05
  12    -0.017345309197424
  13     0.004386273960808
  14    -1.3135643006033e-05
  15    -0.018592780760848
  16    -0.066633584227635
  17    -0.018593501152091
  18    -0.066634043377373
 Sym= A
 Ene=               2
 Spin= Alpha
 Occup=    1.00000
   1     -0.97573836305399
   2     0.030033923747093
   3     0.065089907427556
   4      0.17501628483138
   5    -0.007418655538949
   6    -0.0074237787460236
   7      0.13855057845911
   8    -0.0032164408151746
   9    -0.0032197131522066
  10    0.00056775942015814
  11    0.0067649979639282
  12    -0.00061112365708592
  13    -0.00098415719494841
  14    0.0067649979639282
  15    0.0061686927653899
  16    -0.0052563797460346
  17    0.0061655733707495
  18    -0.0052583679284761
 Sym= A
 Ene=               3
 Spin= Alpha
 Occup=    1.00000
   1    -0.034518354205499
   2      0.13248639709408
   3     0.092419191882654
   4    2.1666833404263e-06
   5      0.47875136166823
   6     -0.03096130447514
   7    1.7152417014208e-06
   8      0.32356341577247
   9    -0.0020044578258318
  10    -0.022481135247141
  11    8.3749968764628e-08
  12     0.017327851912834
  13    -0.037573320377749
  14    8.3749968839507e-08
  15      0.29524441820271
  16      0.14240786432512
  17     -0.01510707368281
  18    -0.055398267286202
 Sym= A
 Ene=               4
 Spin= Alpha
 Occup=    1.00000
   1       0.2762551746247
   2    -0.0082488580554784
   3    -0.018123599363919
   4      0.61802485535934
   5    0.0019827503444333
   6    0.0019836751569318
   7      0.48925562152485
   8    0.00082513601700039
   9    0.00082572672085938
  10    -0.0001622941318841
  11     0.023888844927723
  12     0.000163385020242
  13    0.00028124050365782
  14     0.023888844927723
  15    -0.0017580804794455
  16     0.001451648261715
  17    -0.0017575173838867
  18    0.0014520071572162
