[Molden Format]
made by pyscf v[1.6.4]
[Atoms] (AU)
C   1   6     8.83219251236156    11.86927152263468     0.00000000000000
C   2   6    11.15163290902210    10.53014167090126     0.00000000000000
C   3   6    11.15163290902210     7.85188196743444     0.00000000000000
C   4   6     8.83219251236156     6.51275211570103     0.00000000000000
C   5   6     6.51275211570103     7.85188196743444     0.00000000000000
C   6   6     6.51275211570103    10.53014167090126     0.00000000000000
H   7   1     8.83219251236156    13.94029797159051     0.00000000000000
H   8   1    12.94519276083417    11.56565489537918     0.00000000000000
H   9   1    12.94519276083417     6.81637063268265     0.00000000000000
H   10   1     8.83219251236156     4.44172755647132     0.00000000000000
H   11   1     4.71919226388896     6.81637063268265     0.00000000000000
H   12   1     4.71919226388896    11.56565489537918     0.00000000000000
[GTO]
1 0
 s    6 1.00
             3047.5249  0.0018347001629433
             457.36951    0.01403730124668
             103.94869   0.068842606114048
             29.210155    0.23218442062076
              9.286663    0.46794134155879
              3.163927    0.36231203217765
 s    3 1.00
             7.8682724   -0.11933240861517
             1.8812885   -0.16085421161283
             0.5442493     1.1434564825515
 s    1 1.00
             0.1687144                   1
 p    3 1.00
             7.8682724   0.068999095584993
             1.8812885    0.31642397975315
             0.5442493    0.74430825237435
 p    1 1.00
             0.1687144                   1
 d    1 1.00
                   0.8                   1

2 0
 s    6 1.00
             3047.5249  0.0018347001629433
             457.36951    0.01403730124668
             103.94869   0.068842606114048
             29.210155    0.23218442062076
              9.286663    0.46794134155879
              3.163927    0.36231203217765
 s    3 1.00
             7.8682724   -0.11933240861517
             1.8812885   -0.16085421161283
             0.5442493     1.1434564825515
 s    1 1.00
             0.1687144                   1
 p    3 1.00
             7.8682724   0.068999095584993
             1.8812885    0.31642397975315
             0.5442493    0.74430825237435
 p    1 1.00
             0.1687144                   1
 d    1 1.00
                   0.8                   1

3 0
 s    6 1.00
             3047.5249  0.0018347001629433
             457.36951    0.01403730124668
             103.94869   0.068842606114048
             29.210155    0.23218442062076
              9.286663    0.46794134155879
              3.163927    0.36231203217765
 s    3 1.00
             7.8682724   -0.11933240861517
             1.8812885   -0.16085421161283
             0.5442493     1.1434564825515
 s    1 1.00
             0.1687144                   1
 p    3 1.00
             7.8682724   0.068999095584993
             1.8812885    0.31642397975315
             0.5442493    0.74430825237435
 p    1 1.00
             0.1687144                   1
 d    1 1.00
                   0.8                   1

4 0
 s    6 1.00
             3047.5249  0.0018347001629433
             457.36951    0.01403730124668
             103.94869   0.068842606114048
             29.210155    0.23218442062076
              9.286663    0.46794134155879
              3.163927    0.36231203217765
 s    3 1.00
             7.8682724   -0.11933240861517
             1.8812885   -0.16085421161283
             0.5442493     1.1434564825515
 s    1 1.00
             0.1687144                   1
 p    3 1.00
             7.8682724   0.068999095584993
             1.8812885    0.31642397975315
             0.5442493    0.74430825237435
 p    1 1.00
             0.1687144                   1
 d    1 1.00
                   0.8                   1

5 0
 s    6 1.00
             3047.5249  0.0018347001629433
             457.36951    0.01403730124668
             103.94869   0.068842606114048
             29.210155    0.23218442062076
              9.286663    0.46794134155879
              3.163927    0.36231203217765
 s    3 1.00
             7.8682724   -0.11933240861517
             1.8812885   -0.16085421161283
             0.5442493     1.1434564825515
 s    1 1.00
             0.1687144                   1
 p    3 1.00
             7.8682724   0.068999095584993
             1.8812885    0.31642397975315
             0.5442493    0.74430825237435
 p    1 1.00
             0.1687144                   1
 d    1 1.00
                   0.8                   1

6 0
 s    6 1.00
             3047.5249  0.0018347001629433
             457.36951    0.01403730124668
             103.94869   0.068842606114048
             29.210155    0.23218442062076
              9.286663    0.46794134155879
              3.163927    0.36231203217765
 s    3 1.00
             7.8682724   -0.11933240861517
             1.8812885   -0.16085421161283
             0.5442493     1.1434564825515
 s    1 1.00
             0.1687144                   1
 p    3 1.00
             7.8682724   0.068999095584993
             1.8812885    0.31642397975315
             0.5442493    0.74430825237435
 p    1 1.00
             0.1687144                   1
 d    1 1.00
                   0.8                   1

7 0
 s    3 1.00
             18.731137    0.03349459952309
             2.8253937    0.23472694665786
             0.6401217    0.81375731841339
 s    1 1.00
             0.1612778                   1

8 0
 s    3 1.00
             18.731137    0.03349459952309
             2.8253937    0.23472694665786
             0.6401217    0.81375731841339
 s    1 1.00
             0.1612778                   1

9 0
 s    3 1.00
             18.731137    0.03349459952309
             2.8253937    0.23472694665786
             0.6401217    0.81375731841339
 s    1 1.00
             0.1612778                   1

10 0
 s    3 1.00
             18.731137    0.03349459952309
             2.8253937    0.23472694665786
             0.6401217    0.81375731841339
 s    1 1.00
             0.1612778                   1

11 0
 s    3 1.00
             18.731137    0.03349459952309
             2.8253937    0.23472694665786
             0.6401217    0.81375731841339
 s    1 1.00
             0.1612778                   1

12 0
 s    3 1.00
             18.731137    0.03349459952309
             2.8253937    0.23472694665786
             0.6401217    0.81375731841339
 s    1 1.00
             0.1612778                   1

[5d]
[7f]
[9g]

[MO]
 Sym= A
 Ene=               0
 Spin= Alpha
 Occup=    1.00000
   1    -0.00018278225544279
   2    0.00025883493845337
   3    -0.00058819021332136
   4    0.00084200836404872
   5    -0.00057582902755058
   6    1.0984910178302e-16
   7    0.00075163459558481
   8    -0.00014000151727545
   9    -1.8958172813121e-16
  10    2.269341835848e-05
  11    -1.0492479887184e-17
  12    4.564746727864e-17
  13    0.00022329703365677
  14    0.00019345504089071
  15    0.0030289145360583
  16    -0.008756686882091
  17    0.0011213709704835
  18    0.00036077281987733
  19     0.013478885188863
  20    7.4176134177969e-17
  21    0.00014459155069874
  22    0.0013794081071705
  23    -4.2555115037421e-17
  24    0.00075421001353352
  25    -1.1544343218006e-17
  26    3.6543321104761e-17
  27    0.0014628912282102
  28    7.3091459433789e-05
  29        1.007979138278
  30    -0.0040974667087406
  31    -0.038993772646829
  32    -4.0192341196558e-05
  33    1.1171838077633e-05
  34    3.9494188436035e-17
  35    -0.00017731854442804
  36    9.8415372467438e-05
  37    2.7623722167238e-17
  38    0.00093785156246539
  39    -2.8372304133583e-19
  40    -4.2771485512121e-18
  41    -0.00023754749026694
  42    0.00041311817929271
  43    0.0030059825864091
  44    -0.0087404897274343
  45    0.0011338601141614
  46    -0.011490802602149
  47    -0.0070403896823822
  48    4.7042338353462e-17
  49    -0.0011203371091454
  50    -0.00080948520998252
  51    2.4220915350005e-17
  52    0.00075354079629263
  53    3.0268769479365e-18
  54    -9.0170799122777e-19
  55    -0.00079350433676439
  56    -0.001230403338124
  57    -0.00024369496174806
  58    0.00026924516978982
  59    -0.00057757081504861
  60    0.00092030155202604
  61    -0.00045617213708619
  62    3.2660383353469e-17
  63    0.00049491832686981
  64    -0.00058730016969428
  65    2.5562544776904e-17
  66    2.1954376304663e-05
  67    2.9049989803347e-18
  68    -1.2777971836924e-18
  69    -0.0002778897375414
  70    -9.6287788503001e-05
  71    -0.0002307055393766
  72    0.00033175818376995
  73    0.0025992379906263
  74    7.8058407803941e-05
  75    -3.9699693496788e-05
  76    2.3201439799496e-17
  77    0.0010079797183395
  78    -0.0005785161696467
  79    8.5665167650916e-18
  80    -4.4010847659646e-05
  81    -3.0882660566163e-19
  82    -1.8741430135793e-18
  83    2.4785596469984e-05
  84    -4.2821466592385e-05
  85    -0.00080639058981522
  86    -0.0010173895944276
  87    0.0012259452777198
  88    0.0020341314476452
  89    -0.011158571376617
  90    -0.0011068785123425
  91    0.0012236551357726
  92    0.0020286911752514
  93    -0.00079647003926179
  94    -0.0010110972498912
  95    0.00026030183194768
  96    0.00044862134198271
 Sym= A
 Ene=               1
 Spin= Alpha
 Occup=    1.00000
   1    -0.00027293638066484
   2    0.0003171187725192
   3    0.0025887115297635
   4    -2.8785126956201e-06
   5    -0.00010218788747559
   6    -7.7134982789406e-17
   7    -1.6429010268303e-06
   8    -0.0011730158957877
   9    -5.1522536751098e-17
  10    -4.319026948764e-05
  11    -1.2436925823306e-18
  12    -1.2163036166805e-18
  13    -4.7705295362273e-05
  14    2.7322433942252e-07
  15    -0.00017191046308415
  16    0.00026856867240254
  17    -0.00058058235049662
  18    -5.8898490023692e-05
  19    -0.0010099016158591
  20    -9.5597363200903e-18
  21    0.00026531821595262
  22    -0.00071357931145931
  23    -6.9968143896145e-18
  24    2.1956114375162e-05
  25    1.4784894040513e-18
  26    -2.1341439371366e-18
  27    5.6625498481728e-05
  28    -0.00028802937481136
  29    0.0030585711885023
  30    -0.0087421218209066
  31    0.0011323735941037
  32     0.011845161803074
  33     0.006416803238848
  34    3.7088271829612e-17
  35    0.0012628984846279
  36     0.000558946894877
  37    3.3808016352145e-17
  38    0.00075348671420537
  39    -1.452509695351e-18
  40    -1.1914240437717e-18
  41    -0.00066743264887868
  42    -0.0013027904799001
  43       1.0079782380772
  44    -0.0040940743520997
  45    -0.038993971864352
  46    5.812854800372e-07
  47    6.0203088117636e-05
  48    3.7852723804402e-17
  49    8.1752922029714e-07
  50    0.00021289750788027
  51    3.3139759566983e-17
  52    0.00093789312448951
  53    2.3972934893815e-18
  54    7.1761598348854e-19
  55    0.0004784163665651
  56    -1.1640503122611e-07
  57    0.0029462541450839
  58    -0.0087415993044497
  59    0.0011372558279711
  60    -0.011845839351468
  61    0.0064194312472812
  62    -6.1500008408291e-18
  63    -0.0012641642568117
  64    0.00056000212212776
  65    -3.3306949743811e-18
  66    0.0007534324178709
  67    1.1950111374089e-18
  68    -3.1332677696164e-18
  69    -0.00066745990716843
  70    0.0013032702668085
  71    -0.00014508401272001
  72    0.00026652377259793
  73    -0.00058446005751267
  74    7.1388373199588e-05
  75    -0.0010161368138574
  76    -5.3408704581985e-17
  77    -0.00025853326284924
  78    -0.000716441564291
  79    -4.6750611565129e-17
  80    2.2226153620375e-05
  81    -5.135789204597e-19
  82    -5.9683279717018e-19
  83    5.5957341547194e-05
  84    0.00028897329659459
  85    0.00024458436779706
  86    0.00043866465857654
  87    -0.00078862782110631
  88      -0.0010048225588
  89    0.0012295883253562
  90     0.002034703855185
  91    -0.011171060806715
  92    -0.0011174740195781
  93    0.0012310552041278
  94    0.0020353085850213
  95    -0.00079891100815159
  96    -0.0010122055136132
 Sym= A
 Ene=               2
 Spin= Alpha
 Occup=    1.00000
   1    0.0029731024784219
   2    -0.0087518871613218
   3     0.001129676664188
   4    -0.011491708327332
   5    0.0070355164136575
   6    -1.1255638950494e-16
   7    -0.0011245593913722
   8    0.00079802916533245
   9    6.7136875926214e-17
  10    0.00075367638740548
  11    -2.8408577944245e-17
  12    1.011303832766e-16
  13    -0.00079146367784764
  14    0.0012309642945371
  15       1.0079657538891
  16    -0.0040546692186538
  17    -0.038961960141266
  18    1.5586877806025e-05
  19    2.0430906340157e-05
  20    -8.0265402770766e-17
  21    -0.00014182141515949
  22    -7.7467912066508e-05
  23    -1.4281473844333e-16
  24    0.00093518488833784
  25    -6.816245323459e-17
  26    3.9201630065926e-17
  27    -0.00023500563910851
  28    -0.00040859132575304
  29    0.0030453771198158
  30    -0.008755533711334
  31    0.0011245294204003
  32    0.00035883982378508
  33    -0.013484556919175
  34    -6.0698240287861e-17
  35    0.00013531691513756
  36    -0.0013796969495958
  37    -4.2296500883515e-17
  38    0.00075356844837873
  39    -7.9827673989475e-19
  40    -2.2715911903981e-18
  41    0.0014627223425396
  42    -7.1042225213234e-05
  43    -0.00019722161428776
  44    0.00027839266440478
  45    -0.00057888726046735
  46    0.00084101853041723
  47    0.00057602517267336
  48    -1.0068781044662e-17
  49    0.00075227808006813
  50    0.0001329475923084
  51    7.5667514514959e-18
  52    2.1934177890992e-05
  53    -5.1612414145311e-18
  54    9.7540971039637e-19
  55    0.00022279942677573
  56    -0.00019418871286694
  57    -0.00042845492114177
  58    0.00032880209995226
  59    0.0026091523222159
  60    9.8840185623861e-05
  61    4.9530826822862e-05
  62    2.707330544082e-17
  63    0.0010213979132006
  64    0.00058679604279735
  65    2.7335284776257e-17
  66    -4.3893245683057e-05
  67    -2.3889397914357e-18
  68    8.9617838178624e-19
  69    2.4200769631775e-05
  70    4.1400958672638e-05
  71    -0.00010740766260091
  72    0.00027773732385953
  73    -0.00058260361359964
  74    0.00092548724161901
  75    0.00044786004259868
  76    8.3402472432013e-18
  77    0.00049273907770921
  78    0.00058845090997563
  79    1.368085853257e-17
  80    2.1991995840975e-05
  81    -3.6369339442838e-18
  82    -2.9072780164764e-18
  83    -0.00027868676755344
  84    9.5846218764523e-05
  85    0.0012147583206421
  86    0.0020250912999271
  87    -0.011101036268522
  88    -0.0010730022725205
  89    0.0012248211197518
  90    0.0020346034718033
  91    -0.00079906154653099
  92    -0.0010171403628043
  93    0.00024694897365461
  94    0.00043974083209429
  95    -0.0007998237368793
  96    -0.0010159695668894
 Sym= A
 Ene=               3
 Spin= Alpha
 Occup=    1.00000
   1       1.0079485575458
   2    -0.0040014751022294
   3    -0.038916273482733
   4    5.5934306513306e-06
   5    9.5148929663998e-05
   6    1.7070912089952e-16
   7    3.3065580046962e-06
   8    -0.00012095315963563
   9    1.019635353047e-16
  10    0.00093217609991427
  11    -1.3743878374882e-17
  12    -8.2825266359126e-17
  13    0.00046704657295299
  14    1.7651860524328e-07
  15    0.0031047886859134
  16    -0.0087700691815222
  17     0.001114864586609
  18     0.011853098378212
  19    -0.0063951212985723
  20    1.1532851461936e-16
  21    0.0012554585612584
  22    -0.00056734904194102
  23    9.0865834028227e-17
  24    0.00075383613039366
  25    -7.1522045176463e-18
  26    2.4702536926639e-18
  27    -0.00066926765368717
  28    0.0012998611271903
  29    -0.00017809523089513
  30    0.00026131787004363
  31    -0.00059220772498226
  32    -6.3456026553219e-05
  33    0.00098751494071203
  34    1.6011870740044e-17
  35    0.00027094257766997
  36    0.00070578736511147
  37    2.1680861152232e-18
  38    2.2809355672169e-05
  39    1.4885319603965e-18
  40    6.5184582200382e-18
  41    5.8941486666675e-05
  42    0.00028897034742246
  43    -0.00035558179346314
  44    0.00032321082897356
  45    0.0026082730641358
  46    -2.5407982812811e-06
  47    0.00011577131582531
  48    -4.3772655991673e-17
  49    -8.2529073481784e-07
  50    0.0011862788655065
  51    -4.9424850194624e-17
  52    -4.3297463378519e-05
  53    7.7267378930615e-19
  54    2.7145442840036e-19
  55    -4.6352138951487e-05
  56    -6.3135904387674e-07
  57    -0.00018978389104992
  58    0.00027298652254691
  59    -0.00058414058154333
  60    7.4533140716092e-05
  61    0.0010097451134124
  62    -2.0394204619104e-19
  63    -0.00026431663202544
  64    0.00071392087452288
  65    -1.138929730699e-17
  66    2.2468551539932e-05
  67    -1.5649469066078e-18
  68    5.8698452824388e-18
  69    5.7360953989657e-05
  70    -0.00028993156003092
  71    0.0030094494203422
  72    -0.0087578932839495
  73    0.0011279958147133
  74    -0.011860315779905
  75    -0.0064161817299136
  76    1.031235180683e-16
  77    -0.0012593174437046
  78    -0.00057420018070335
  79    7.6386493927775e-17
  80    0.0007532100838584
  81    7.2470815232328e-18
  82    3.2365065793332e-18
  83    -0.0006702745001508
  84    -0.0013008032480773
  85    -0.011038043009513
  86    -0.0010392248229514
  87       0.0012241150669
  88     0.002036343116101
  89    -0.00078814581803685
  90    -0.0010074668201864
  91    0.00023829130711465
  92    0.00043316481462986
  93    -0.00079755544832703
  94    -0.0010169311883802
  95    0.0012277766142633
  96    0.0020371041030542
 Sym= A
 Ene=               4
 Spin= Alpha
 Occup=    1.00000
   1    -0.00018375951692011
   2    0.00028731809339412
   3    -0.00057437524363346
   4    -0.00083564111955512
   5    -0.00057105079063168
   6    4.7942612743068e-17
   7    -0.00075062132725522
   8    -0.00012647738048113
   9    -2.918170354853e-17
  10    2.1860322877416e-05
  11    2.113308957646e-17
  12    -3.1958187819207e-17
  13    0.00022229968078212
  14    -0.00019428213398623
  15    -0.00020502757749422
  16    0.00032742624720228
  17    0.0026066247136565
  18    -0.00010318279536422
  19    -3.7057431613555e-05
  20    1.5403072923128e-17
  21    -0.0010270723845913
  22    -0.00058520528868918
  23    1.1153782518122e-16
  24    -4.376774817522e-05
  25    8.1667243028945e-18
  26    -3.6642658373497e-17
  27    2.4789492366084e-05
  28    4.0272967690286e-05
  29    -0.00012244028056358
  30    0.00026848603605131
  31    -0.00058975377280277
  32    -0.00090464691593704
  33    -0.00045909681522042
  34    -1.484581849514e-18
  35    -0.00048105100466089
  36    -0.00059685528321695
  37    3.3289347489827e-19
  38    2.2602394125157e-05
  39    9.638936076518e-19
  40    7.6720947135623e-18
  41    -0.0002781601423879
  42    9.4032466861001e-05
  43    0.0031281979136431
  44    -0.0087705434707025
  45    0.0011126809349815
  46     0.011483018462916
  47    -0.0070370262530567
  48    -6.059035796412e-17
  49    0.0011256970633916
  50    -0.00078799188279381
  51    -4.4118906317846e-17
  52    0.00075421922347625
  53    -8.1297637640977e-19
  54    1.0467742901362e-18
  55    -0.00078906740304217
  56    0.0012301889079224
  57       1.0079497529814
  58    -0.0040049858755729
  59    -0.038920675757776
  60    -7.1492378956376e-05
  61    -4.4034932697675e-05
  62    -5.0254612079756e-17
  63    0.00010758233309157
  64    5.9266403790383e-05
  65    -5.1609137760214e-17
  66    0.00093250027598183
  67    -3.6372863186702e-18
  68    3.1854872590253e-18
  69    -0.00023324014085332
  70    -0.00040391695312561
  71    0.0030206774274287
  72    -0.008760768745497
  73    0.0011243565662368
  74    -0.00035627910718805
  75     0.013473937096231
  76    2.9501982387897e-18
  77    -0.00012376398237735
  78    0.0013740743827361
  79    4.9511678420762e-18
  80    0.0007534184087587
  81    4.9119108756477e-18
  82    4.9839583372894e-18
  83    0.0014613291091128
  84    -6.8930608418104e-05
  85    -0.00079342020560831
  86    -0.0010168130439644
  87    0.00024490947969851
  88    0.00044037059209253
  89    -0.00078840531218119
  90    -0.0010082495873872
  91    0.0012042445057546
  92    0.0020220109177655
  93     -0.01104401057227
  94    -0.0010417126620131
  95    0.0012158780910435
  96    0.0020298331972504
 Sym= A
 Ene=               5
 Spin= Alpha
 Occup=    1.00000
   1    0.0030696713414027
   2    -0.0087669848889234
   3    0.0011154756145222
   4     0.011511574849694
   5    0.0070625098549426
   6    -1.4082255821234e-17
   7    0.0011356694121431
   8    0.0008018558211401
   9    -1.5236932569126e-16
  10    0.00075359905663826
  11    3.0581490228594e-17
  12    4.0907569360182e-18
  13    -0.00079058605403474
  14    -0.0012322278102184
  15    -0.00026574238808252
  16    0.00028183118979608
  17    -0.00057487600695189
  18    -0.00091189060117808
  19    0.00045846986243393
  20    -4.0666891970185e-17
  21    -0.00048592538267557
  22    0.00059592932296512
  23    4.7696929386984e-17
  24    2.1827934676994e-05
  25    7.667795110442e-17
  26    -4.3434198068223e-17
  27    -0.00027932156198156
  28    -9.4880422390462e-05
  29    -0.0004047375452626
  30    0.00033063504352076
  31     0.002613545543733
  32    -0.00010263892122322
  33    4.8007841993588e-05
  34    3.2143870011599e-17
  35    -0.0010248578235708
  36    0.0005868863373343
  37    3.2123687167561e-17
  38    -4.4027455439892e-05
  39    4.1908041501887e-19
  40    -3.3428873527938e-18
  41    2.4735776521133e-05
  42    -4.0964822368461e-05
  43    -0.0002249889315823
  44    0.00028329678812711
  45    -0.00057712440478115
  46    -0.00084954872745039
  47    0.00059595770240685
  48    2.6468484453509e-17
  49    -0.00075632169874879
  50    0.00014039482875812
  51    1.9109363724132e-17
  52    2.215634904643e-05
  53    4.9295533846922e-18
  54    -2.1808689682818e-18
  55    0.00022415033673922
  56    0.00019376505794588
  57    0.0030515031126741
  58    -0.008742162827962
  59    0.0011364349232261
  60    -0.00035079302900278
  61    -0.013481653411056
  62    -5.0150090642222e-17
  63    -0.00012380560854008
  64    -0.0013787057458285
  65    -3.4253134692862e-17
  66    0.00075277140439164
  67    2.4870853613662e-18
  68    -6.4750269209236e-18
  69    0.0014623566403931
  70    6.8109582369118e-05
  71       1.0079526021864
  72    -0.0040131968213875
  73    -0.038926062422699
  74    -0.00010176465104774
  75    3.8181882460645e-05
  76    -1.1082726675425e-16
  77    9.6110900406043e-05
  78    -6.1282772326054e-05
  79    -9.0803382918467e-17
  80    0.00093231833533807
  81    -3.4689770585723e-18
  82    1.5557696207413e-18
  83    -0.00023388035383805
  84    0.00040213906699756
  85    0.0012221486386976
  86    0.0020340164266131
  87    -0.00078807597331494
  88    -0.0010121267990397
  89    0.00024636709245291
  90    0.00044032059994934
  91    -0.00081030271001788
  92    -0.0010280972076562
  93    0.0012208354468899
  94    0.0020285945613379
  95    -0.011031899220302
  96    -0.0010298390682129
 Sym= A
 Ene=               6
 Spin= Alpha
 Occup=    1.00000
   1    0.0098093387588312
   2     -0.02144707620919
   3    -0.029644604953416
   4    -0.029194101187108
   5     0.015735177365812
   6    -1.7376702034198e-17
   7     -0.02194423400438
   8     0.018670106575689
   9    -4.4861080699017e-16
  10    -0.0012931452746031
  11    -9.7541696024938e-18
  12    1.2702115618042e-16
  13    -0.0067938551866666
  14    -0.0060445308493307
  15    -0.070337686657265
  16      0.22810576457869
  17       0.1657793591986
  18     0.010587928153181
  19     -0.35367182589167
  20    -9.3006124023055e-17
  21    0.0012221618952608
  22     -0.12385300705714
  23    5.0839433127404e-17
  24    -0.0095688237838997
  25    1.9159722453267e-17
  26    5.5197884683655e-17
  27    -0.021321462797982
  28    0.00085396611186613
  29    -0.070339740680562
  30       0.2281521300303
  31      0.16581161539086
  32     0.010892504450298
  33      0.35363821009161
  34    -1.7935540705246e-16
  35    0.0014041438661742
  36      0.12380514470107
  37    -1.7946617040988e-16
  38    -0.0095732298110841
  39    8.7446141632103e-18
  40    1.0538669786152e-16
  41    -0.021318289438637
  42    -0.00088467027752575
  43     0.009782882172998
  44    -0.021581622076333
  45    -0.029728495062987
  46    -0.029316519489664
  47    -0.015846666434844
  48    2.4106629831276e-17
  49    -0.022004463018426
  50    -0.018679958062818
  51    -3.2297803645857e-17
  52    -0.0012900328870347
  53    2.9856730621375e-17
  54    6.6020512396098e-17
  55    -0.0067936969963579
  56    0.0060373512944008
  57    0.0035009988785138
  58    -0.0051987355729848
  59    -0.014595971425245
  60    -0.013883633171599
  61    0.0034297881514197
  62    1.5188987815974e-16
  63    -0.0099957471992805
  64    0.0048729833303614
  65    1.0642092005001e-16
  66    -0.00014447731111002
  67    -2.2965294427067e-18
  68    1.8085720647857e-17
  69    -0.00084832477759713
  70    -0.0001500830347429
  71    0.0034868217729484
  72    -0.0052072394615541
  73    -0.014576924100657
  74    -0.013851981160945
  75    -0.0034471622346636
  76    7.2616390948513e-17
  77    -0.0099728641804032
  78    -0.0048985528580934
  79    1.0569817616721e-16
  80    -0.00014522318255854
  81    3.3021431490327e-17
  82    -1.0926710729405e-17
  83    -0.00084354221315689
  84    0.00015265303174808
  85     0.018241323287653
  86     0.034539619514373
  87     -0.02217618432141
  88    -0.056162543036688
  89    -0.021965541513845
  90     -0.05601373137938
  91     0.018255516821949
  92     0.034579069000542
  93    0.0019281690213006
  94    -0.00070274166830796
  95     0.001912022341963
  96    -0.00069679853191649
 Sym= A
 Ene=               7
 Spin= Alpha
 Occup=    1.00000
   1    0.0034873461128673
   2    -0.005214595292136
   3    -0.014595024130464
   4    -0.0099286956958783
   5     0.010265968501448
   6    1.006738991413e-16
   7    -0.009230592915225
   8    0.0062000343052702
   9    1.2927682654336e-16
  10    -0.00014253066878682
  11    -8.1793372456703e-17
  12    1.2551622199161e-16
  13    0.0005543110887738
  14    0.00066136770281759
  15    0.0097607434756458
  16    -0.021551743139657
  17    -0.029701876840314
  18    -0.00090889179623974
  19     0.033270056022171
  20    -1.9202841013834e-16
  21    0.0051797959121528
  22     0.028379434327897
  23    -4.1583369387029e-16
  24    -0.001291251221788
  25    -1.2481351005987e-16
  26    -1.2897915003537e-16
  27    -0.0018329152941591
  28     0.008899377684328
  29    -0.070406177340714
  30      0.22825264196271
  31      0.16590276600539
  32       -0.300670171544
  33     -0.18629157955744
  34    1.2463823017284e-16
  35     -0.10645969081865
  36    -0.063126436013682
  37    2.1465829106048e-16
  38    -0.0095798618081795
  39    -1.3325073076482e-16
  40    -4.8556169431432e-17
  41     0.011418108156098
  42     0.018016484372501
  43    -0.070375081128572
  44      0.22813201150246
  45      0.16581865916873
  46      0.31173072084498
  47      0.16728841575229
  48    1.5803526078012e-16
  49      0.10791788308332
  50     0.060685881504969
  51    1.8222321822679e-16
  52    -0.009575327055749
  53    -1.9200162000452e-16
  54    -2.3619288685673e-17
  55    0.0098987638809081
  56     0.018900188762294
  57    0.0097797281406359
  58    -0.021528793957125
  59     -0.02969807656932
  60     -0.02843805983163
  61     0.017510792414195
  62    -2.0966805555531e-17
  63    -0.027220843477831
  64    0.0097194561018355
  65    2.4972390313803e-17
  66    -0.0012911563333935
  67    8.2244004863991e-17
  68    1.2961120610781e-16
  69    0.0086203525099861
  70    0.0028710720166106
  71    0.0034565098639076
  72    -0.0052201541386107
  73     -0.01458413643528
  74    -0.0038746703085951
  75     0.013639069003344
  76    -5.469520561263e-17
  77    -0.0007041323017984
  78     0.011040453076591
  79    -1.3769559816744e-16
  80    -0.000141647817842
  81    -1.02790286779e-16
  82    7.4798098240835e-17
  83    0.00028693088888855
  84    0.00081861182448147
  85    0.0019002412332534
  86    -0.00071804700831375
  87     0.018261505128931
  88     0.034574082823975
  89    -0.021856376883354
  90    -0.055963137944791
  91    -0.021927788405987
  92     -0.05598289718305
  93     0.018289523511609
  94     0.034585113966048
  95    0.0018320998286265
  96    -0.00076879538472249
 Sym= A
 Ene=               8
 Spin= Alpha
 Occup=    1.00000
   1    0.0097992852967528
   2    -0.021591390771188
   3    -0.029734596085269
   4     0.029209581372433
   5     0.015789847730107
   6    -9.6233634503792e-17
   7     0.021954406681001
   8     0.018661555393373
   9    -1.6113017691806e-16
  10    -0.0012881046803703
  11    -3.509595479649e-17
  12    -2.1865718444416e-17
  13    -0.0067938899617158
  14    0.0060424592650745
  15    0.0034764428079117
  16    -0.0052020866393862
  17    -0.014584783030545
  18      0.01392809465397
  19    -0.0035082633154122
  20    5.9427955889349e-17
  21     0.010019949644801
  22    -0.0049084404789323
  23    6.4686534669679e-17
  24    -0.00014364718871578
  25    7.8969281712117e-18
  26    1.4317892906054e-16
  27    -0.00084794935602264
  28    -0.00014678714848305
  29    0.0035163611035653
  30    -0.0052673464075915
  31    -0.014632786621845
  32     0.013861492617338
  33    0.0035382996388096
  34    1.2677838572418e-16
  35    0.0099571567588415
  36    0.0049420284954149
  37    1.5340454144004e-16
  38    -0.00014139883143953
  39    -3.547916958244e-18
  40    -1.2613964954325e-16
  41    -0.00085469735688359
  42    0.00015691518663663
  43    0.0097490803219747
  44    -0.021488426782341
  45    -0.029662097490973
  46     0.029217037773576
  47    -0.015928204392795
  48    -8.9394800653233e-17
  49      0.02196863312067
  50    -0.018755162605019
  51    -1.4709557898981e-18